 Q-Chem 5.1, Q-Chem, Inc., Pleasanton, CA (2018)
 Q-Chem 5.1.1 for Intel X86 EM64T Linux

User input:
--------------------------------------------------------------
$comment
NEXAFS VINYLFLUORIDE / 6-311++G**
Optimized geometry with CFour
$end

$molecule
0 1
F      -1.1529023119     0.2247766372     0.0000000000
C1      1.1793501171     0.1997294858     0.0000000000
C2      0.0163188564    -0.4355681094     0.0000000000
H      -0.1189530186    -1.5078996853     0.0000000000
H       1.2308254859     1.2785611362     0.0000000000
H       2.0902344982    -0.3786194440     0.0000000000
$end

$rem
!    input_bohr = true
    jobtype = sp
    method = eom-ccsd
    cvs_ee_singlets    [10,10]
    basis = 6-311++G**
    n_frozen_core = fc
    cc_trans_prop = true
    cc_eom_prop = true
   EOM_DAVIDSON_MAXVECTORS = 1000
   eom_preconv_singles = true
   eom_shift = 10470
   eom_davidson_convergence = 4   !as we discussed, this is good for core
   use_libqints = 1   !use new int library (will be def in trunk)
   thresh = 14   !this already should be default, but just in case
   scf_convergence = 13   !v. tight scf convergence, to reduce noise
   cc_convergence = 12   !tight CC, for the same reason
   basis_lin_dep_thresh = 8  !default is 6, use smaller, just in case
   cc_memory = 100000
   EOM_DAVIDSON_MAX_ITER 200
$end
--------------------------------------------------------------

   20    -176.9366625402      4.57e-14  Convergence criterion met
 Total energy in the final basis set =     -176.9366625402

             Standard Nuclear Orientation (Angstroms)
    I     Atom           X                Y                Z
 ----------------------------------------------------------------
    1      F       1.1529023119     0.2247766372     0.0000000000
    2      C      -1.1793501171     0.1997294858     0.0000000000
    3      C      -0.0163188564    -0.4355681094    -0.0000000000
    4      H       0.1189530185    -1.5078996853    -0.0000000000
    5      H      -1.2308254859     1.2785611362     0.0000000000
    6      H      -2.0902344982    -0.3786194440    -0.0000000000
 ----------------------------------------------------------------

 CCSD total energy           = -177.44759619
 EOMEE transition 1/A'
 Total energy = -166.85701025 a.u.  Excitation energy = 288.1845 eV.
 EOMEE transition 2/A'
 Total energy = -166.83403656 a.u.  Excitation energy = 288.8096 eV.
 EOMEE transition 3/A'
 Total energy = -166.80801399 a.u.  Excitation energy = 289.5178 eV.
 EOMEE transition 4/A'
 Total energy = -166.79478739 a.u.  Excitation energy = 289.8777 eV.
 EOMEE transition 5/A'
 Total energy = -166.76699191 a.u.  Excitation energy = 290.6340 eV.
 EOMEE transition 6/A'
 Total energy = -166.76667383 a.u.  Excitation energy = 290.6427 eV.
 EOMEE transition 7/A'
 Total energy = -166.74865405 a.u.  Excitation energy = 291.1330 eV.
 EOMEE transition 8/A'
 Total energy = -166.73594565 a.u.  Excitation energy = 291.4788 eV.
 EOMEE transition 9/A'
 Total energy = -166.72926659 a.u.  Excitation energy = 291.6606 eV.
 EOMEE transition 10/A'
 Total energy = -166.72314187 a.u.  Excitation energy = 291.8272 eV.
 Excited state properties for  CVS-EOMEE-CCSD transition 1/A'
 Excited state properties for  CVS-EOMEE-CCSD transition 2/A'
 Excited state properties for  CVS-EOMEE-CCSD transition 3/A'
 Excited state properties for  CVS-EOMEE-CCSD transition 4/A'
 Excited state properties for  CVS-EOMEE-CCSD transition 5/A'
 Excited state properties for  CVS-EOMEE-CCSD transition 6/A'
 Excited state properties for  CVS-EOMEE-CCSD transition 7/A'
 Excited state properties for  CVS-EOMEE-CCSD transition 8/A'
 Excited state properties for  CVS-EOMEE-CCSD transition 9/A'
 Excited state properties for  CVS-EOMEE-CCSD transition 10/A'
 EOMEE transition 1/A"
 Total energy = -166.94068850 a.u.  Excitation energy = 285.9075 eV.
 EOMEE transition 2/A"
 Total energy = -166.86249438 a.u.  Excitation energy = 288.0353 eV.
 EOMEE transition 3/A"
 Total energy = -166.79583548 a.u.  Excitation energy = 289.8491 eV.
 EOMEE transition 4/A"
 Total energy = -166.73431275 a.u.  Excitation energy = 291.5233 eV.
 EOMEE transition 5/A"
 Total energy = -166.69934125 a.u.  Excitation energy = 292.4749 eV.
 EOMEE transition 6/A"
 Total energy = -166.63963367 a.u.  Excitation energy = 294.0996 eV.
 EOMEE transition 7/A"
 Total energy = -166.54401464 a.u.  Excitation energy = 296.7015 eV.
 EOMEE transition 8/A"
 Total energy = -166.47162331 a.u.  Excitation energy = 298.6714 eV.
 EOMEE transition 9/A"
 Total energy = -166.37998858 a.u.  Excitation energy = 301.1649 eV.
 EOMEE transition 10/A"
 Total energy = -166.32912296 a.u.  Excitation energy = 302.5490 eV.
 Excited state properties for  CVS-EOMEE-CCSD transition 1/A"
 Excited state properties for  CVS-EOMEE-CCSD transition 2/A"
 Excited state properties for  CVS-EOMEE-CCSD transition 3/A"
 Excited state properties for  CVS-EOMEE-CCSD transition 4/A"
 Excited state properties for  CVS-EOMEE-CCSD transition 5/A"
 Excited state properties for  CVS-EOMEE-CCSD transition 6/A"
 Excited state properties for  CVS-EOMEE-CCSD transition 7/A"
 Excited state properties for  CVS-EOMEE-CCSD transition 8/A"
 Excited state properties for  CVS-EOMEE-CCSD transition 9/A"
 Excited state properties for  CVS-EOMEE-CCSD transition 10/A"

             Orbital Energies (a.u.) and Symmetries
 --------------------------------------------------------------

 Alpha MOs, Restricted
 -- Occupied --
-26.310 -11.332 -11.240  -1.629  -1.055  -0.840  -0.740  -0.691
  1 A'    2 A'    3 A'    4 A'    5 A'    6 A'    7 A'    1 A"
 -0.686  -0.591  -0.562  -0.386
  8 A'    9 A'   10 A'    2 A"

 Total job time:  703.29s(wall), 2570.16s(cpu)
        *  Thank you very much for using Q-Chem.  Have a nice day.  *

 Beta MOs, Restricted
 -- Occupied --
-26.310 -11.332 -11.240  -1.629  -1.055  -0.840  -0.740  -0.691
  1 A'    2 A'    3 A'    4 A'    5 A'    6 A'    7 A'    1 A"
 -0.686  -0.591  -0.562  -0.386
  8 A'    9 A'   10 A'    2 A"

          Ground-State Mulliken Net Atomic Charges

     Atom                 Charge (a.u.)
  ----------------------------------------
      1 F                    -0.161411
      2 C                    -0.250461
      3 C                    -0.020824
      4 H                     0.169571
      5 H                     0.148351
      6 H                     0.114774
  ----------------------------------------
  Sum of atomic charges =     0.000000

                    Cartesian Multipole Moments
 -----------------------------------------------------------------
    Charge (ESU x 10^10)
                 0.0000
    Dipole Moment (Debye)
         X      -1.4919      Y      -0.9315      Z       0.0000
       Tot       1.7588
    Quadrupole Moments (Debye-Ang)
        XX     -18.0169     XY      -0.9545     YY     -15.3190
        XZ      -0.0000     YZ       0.0000     ZZ     -19.4634
