 Q-Chem 5.1, Q-Chem, Inc., Pleasanton, CA (2018)
 Q-Chem 5.1.1 for Intel X86 EM64T Linux

User input:
--------------------------------------------------------------
$comment
NEXAFS WATER / 6-311++G**+Rydberg
CFour optimized geometry
$end

$molecule
0 1
O       0.0000000000     0.0000000000     0.2225991021
H      -1.4275435469     0.0000000000    -0.8903964085
H       1.4275435469     0.0000000000    -0.8903964085
Gh      0.0000000000     0.0000000000     0.0000000000
$end

$rem
    input_bohr = true
    jobtype = sp
    method = eom-ccsd
    cvs_ee_singlets    [10,0,10,10]
    basis = gen
    n_frozen_core = fc
    cc_trans_prop = true
    eom_shift = 19500
   eom_preconv_singles = true
   EOM_DAVIDSON_MAXVECTORS = 1000
   eom_davidson_convergence = 4
   use_libqints = 1
state_analysis = true
molden_format  = true
nto_pairs      = 4
pop_mulliken   = true
$end

$basis
O    0
S    6    1.000000
   8.58850000E+03    1.89515000E-03
   1.29723000E+03    1.43859000E-02
   2.99296000E+02    7.07320000E-02
   8.73771000E+01    2.40001000E-01
   2.56789000E+01    5.94797000E-01
   3.74004000E+00    2.80802000E-01
SP   3    1.000000
   4.21175000E+01    1.13889000E-01   3.65114000E-02
   9.62837000E+00    9.20811000E-01   2.37153000E-01
   2.85332000E+00   -3.27447000E-03   8.19702000E-01
SP   1    1.000000
   9.05661000E-01    1.00000000E+00   1.00000000E+00
SP   1    1.000000
   2.55611000E-01    1.00000000E+00   1.00000000E+00
SP   1    1.000000
   8.45000000E-02    1.00000000E+00   1.00000000E+00
D    1    1.000000
   1.29200000E+00    1.00000000E+00
****
H    0
S    3    1.000000
   3.38650000E+01    2.54938000E-02
   5.09479000E+00    1.90373000E-01
   1.15879000E+00    8.52161000E-01
S    1    1.000000
   3.25840000E-01    1.00000000E+00
S    1    1.000000
   1.02741000E-01    1.00000000E+00
S    1    1.000000
   3.60000000E-02    1.00000000E+00
P    1    1.000000
   7.50000000E-01    1.00000000E+00
****
H    0
S    3    1.000000
   3.38650000E+01    2.54938000E-02
   5.09479000E+00    1.90373000E-01
   1.15879000E+00    8.52161000E-01
S    1    1.000000
   3.25840000E-01    1.00000000E+00
S    1    1.000000
   1.02741000E-01    1.00000000E+00
S    1    1.000000
   3.60000000E-02    1.00000000E+00
P    1    1.000000
   7.50000000E-01    1.00000000E+00
****
Gh   0
S   1   1.00
        0.0112533427        1.0000000000
S   1   1.00
        0.0058583805        1.0000000000
S   1   1.00
        0.0033459739        1.0000000000
S   1   1.00
        0.0020484225        1.0000000000
S   1   1.00
        0.0013236424        1.0000000000
P   1   1.00
        0.0192542060        1.0000000000
P   1   1.00
        0.0099882106        1.0000000000
P   1   1.00
        0.0056893607        1.0000000000
P   1   1.00
        0.0034756797        1.0000000000
P   1   1.00
        0.0022420590        1.0000000000
D   1   1.00
        0.0274456919        1.0000000000
D   1   1.00
        0.0142043987        1.0000000000
D   1   1.00
        0.0080765930        1.0000000000
D   1   1.00
        0.0049271863        1.0000000000
D   1   1.00
        0.0031748110        1.0000000000
 ****
$end
--------------------------------------------------------------

   13     -76.0530920518      8.00e-09  Convergence criterion met
 Total energy in the final basis set =      -76.0530920518
 CCSD total energy           = -76.28200909
 EOMEE transition 1/A1
 Total energy = -56.61332232 a.u.  Excitation energy = 535.2122 eV.
 EOMEE transition 2/A1
 Total energy = -56.49912459 a.u.  Excitation energy = 538.3197 eV.
 EOMEE transition 3/A1
 Total energy = -56.48005236 a.u.  Excitation energy = 538.8386 eV.
 EOMEE transition 4/A1
 Total energy = -56.45893806 a.u.  Excitation energy = 539.4132 eV.
 EOMEE transition 5/A1
 Total energy = -56.45413345 a.u.  Excitation energy = 539.5439 eV.
 EOMEE transition 6/A1
 Total energy = -56.44715238 a.u.  Excitation energy = 539.7339 eV.
 EOMEE transition 7/A1
 Total energy = -56.44147476 a.u.  Excitation energy = 539.8884 eV.
 EOMEE transition 8/A1
 Total energy = -56.43331018 a.u.  Excitation energy = 540.1106 eV.
 EOMEE transition 9/A1
 Total energy = -56.43108253 a.u.  Excitation energy = 540.1712 eV.
 EOMEE transition 10/A1
 Total energy = -56.42757849 a.u.  Excitation energy = 540.2665 eV.
 Excited state properties for  CVS-EOMEE-CCSD transition 1/A1
 Excited state properties for  CVS-EOMEE-CCSD transition 2/A1
 Excited state properties for  CVS-EOMEE-CCSD transition 3/A1
 Excited state properties for  CVS-EOMEE-CCSD transition 4/A1
 Excited state properties for  CVS-EOMEE-CCSD transition 5/A1
 Excited state properties for  CVS-EOMEE-CCSD transition 6/A1
 Excited state properties for  CVS-EOMEE-CCSD transition 7/A1
 Excited state properties for  CVS-EOMEE-CCSD transition 8/A1
 Excited state properties for  CVS-EOMEE-CCSD transition 9/A1
 Excited state properties for  CVS-EOMEE-CCSD transition 10/A1
 EOMEE transition 1/B1
 Total energy = -56.54754054 a.u.  Excitation energy = 537.0022 eV.
 EOMEE transition 2/B1
 Total energy = -56.46906292 a.u.  Excitation energy = 539.1377 eV.
 EOMEE transition 3/B1
 EOMEE transition 4/B1
 EOMEE transition 5/B1
 EOMEE transition 6/B1
 Total energy = -56.42352605 a.u.  Excitation energy = 540.3768 eV.
 EOMEE transition 7/B1
 Total energy = -56.41820088 a.u.  Excitation energy = 540.5217 eV.
 EOMEE transition 8/B1
 Total energy = -56.40994956 a.u.  Excitation energy = 540.7462 eV.
 EOMEE transition 9/B1
 Total energy = -56.39699897 a.u.  Excitation energy = 541.0986 eV.
 EOMEE transition 10/B1
 Total energy = -56.38016000 a.u.  Excitation energy = 541.5569 eV.
 Excited state properties for  CVS-EOMEE-CCSD transition 1/B1
 Excited state properties for  CVS-EOMEE-CCSD transition 2/B1
 Excited state properties for  CVS-EOMEE-CCSD transition 3/B1
 Excited state properties for  CVS-EOMEE-CCSD transition 4/B1
 Excited state properties for  CVS-EOMEE-CCSD transition 5/B1
 Excited state properties for  CVS-EOMEE-CCSD transition 6/B1
 Excited state properties for  CVS-EOMEE-CCSD transition 7/B1
 Excited state properties for  CVS-EOMEE-CCSD transition 8/B1
 Excited state properties for  CVS-EOMEE-CCSD transition 9/B1
 Excited state properties for  CVS-EOMEE-CCSD transition 10/B1
 EOMEE transition 1/B2
 Total energy = -56.50351454 a.u.  Excitation energy = 538.2002 eV.
 EOMEE transition 2/B2
 Total energy = -56.45400398 a.u.  Excitation energy = 539.5475 eV.
 EOMEE transition 3/B2
 Total energy = -56.44872702 a.u.  Excitation energy = 539.6911 eV.
 EOMEE transition 4/B2
 Total energy = -56.43102700 a.u.  Excitation energy = 540.1727 eV.
 EOMEE transition 5/B2
 Total energy = -56.42870483 a.u.  Excitation energy = 540.2359 eV.
 EOMEE transition 6/B2
 Total energy = -56.41808080 a.u.  Excitation energy = 540.5250 eV.
 EOMEE transition 7/B2
 Total energy = -56.41645533 a.u.  Excitation energy = 540.5692 eV.
 EOMEE transition 8/B2
 Total energy = -56.39708135 a.u.  Excitation energy = 541.0964 eV.
 EOMEE transition 9/B2
 Total energy = -56.39470186 a.u.  Excitation energy = 541.1612 eV.
 EOMEE transition 10/B2
 Total energy = -56.35197440 a.u.  Excitation energy = 542.3238 eV.
 Excited state properties for  CVS-EOMEE-CCSD transition 1/B2
 Excited state properties for  CVS-EOMEE-CCSD transition 2/B2
 Excited state properties for  CVS-EOMEE-CCSD transition 3/B2
 Excited state properties for  CVS-EOMEE-CCSD transition 4/B2
 Excited state properties for  CVS-EOMEE-CCSD transition 5/B2
 Excited state properties for  CVS-EOMEE-CCSD transition 6/B2
 Excited state properties for  CVS-EOMEE-CCSD transition 7/B2
 Excited state properties for  CVS-EOMEE-CCSD transition 8/B2
 Excited state properties for  CVS-EOMEE-CCSD transition 9/B2
 Excited state properties for  CVS-EOMEE-CCSD transition 10/B2

             Orbital Energies (a.u.) and Symmetries
 --------------------------------------------------------------

 Alpha MOs, Restricted
 -- Occupied --
-20.567  -1.356  -0.719  -0.585  -0.510
  1 A1    2 A1    1 B1    3 A1    1 B2

 Beta MOs, Restricted
 -- Occupied --
-20.567  -1.356  -0.719  -0.585  -0.510
  1 A1    2 A1    1 B1    3 A1    1 B2

 Total job time:  610.13s(wall), 2239.19s(cpu)
        *  Thank you very much for using Q-Chem.  Have a nice day.  *

          Ground-State Mulliken Net Atomic Charges

     Atom                 Charge (a.u.)
  ----------------------------------------
      1 O                    -0.494844
      2 H                     0.237526
      3 H                     0.237526
      4 GH                    0.019791
  ----------------------------------------
  Sum of atomic charges =     0.000000

                    Cartesian Multipole Moments
 -----------------------------------------------------------------
    Charge (ESU x 10^10)
                -0.0000
    Dipole Moment (Debye)
         X       0.0000      Y       0.0000      Z      -2.2052
       Tot       2.2052
    Quadrupole Moments (Debye-Ang)
        XX      -4.2762     XY       0.0000     YY      -7.5903
        XZ      -0.0000     YZ      -0.0000     ZZ      -6.3077
