 Q-Chem 5.1, Q-Chem, Inc., Pleasanton, CA (2018)
 Q-Chem 5.1.1 for Intel X86 EM64T Linux

User input:
--------------------------------------------------------------
$comment
NEXAFS Ne/6-311++G**
$end

$molecule
0 1
Ne         0.000000    0.000000    0.000000
$end

$rem
    input_bohr = true
    jobtype = sp
    method = eom-ccsd
    cvs_ee_singlets    [0,0,0,0,0,3,0,0]
    basis = gen
    n_frozen_core = fc
    cc_trans_prop = true
    cc_memory = 100000
    cc_eom_prop = true
state_analysis = true
molden_format  = true
nto_pairs      = 4
pop_mulliken   = true
$end

$basis
Ne   0
S    6    1.000000
   1.39957000E+04    1.83276000E-03
   2.11710000E+03    1.38827000E-02
   4.90425000E+02    6.80687000E-02
   1.43833000E+02    2.31328000E-01
   4.19265000E+01    5.85890000E-01
   6.15684000E+00    3.05883000E-01
SP   3    1.000000
   6.91211000E+01    1.19149000E-01   3.56574000E-02
   1.58350000E+01    9.17375000E-01   2.39477000E-01
   4.67326000E+00   -4.05839000E-03   8.18461000E-01
SP   1    1.000000
   1.45756000E+00    1.00000000E+00   1.00000000E+00
SP   1    1.000000
   3.97057000E-01    1.00000000E+00   1.00000000E+00
SP   1    1.000000
   1.30000000E-01    1.00000000E+00   1.00000000E+00
D    1    1.000000
   2.30400000E+00    1.00000000E+00
S   1   1.00
        0.0058583805        1.0000000000
S   1   1.00
        0.0033459739        1.0000000000
S   1   1.00
        0.0020484225        1.0000000000
P   1   1.00
        0.0099882106        1.0000000000
P   1   1.00
        0.0056893607        1.0000000000
P   1   1.00
        0.0034756797        1.0000000000
D   1   1.00
        0.0142043987        1.0000000000
D   1   1.00
        0.0080765930        1.0000000000
D   1   1.00
        0.0049271863        1.0000000000
****
$end
--------------------------------------------------------------

   11    -128.5267122151      6.06e-10  Convergence criterion met
 Total energy in the final basis set =     -128.5267122151
 CCSD total energy           = -128.74037744
 EOMEE transition 1/B1u
 Total energy = -96.83108667 a.u.  Excitation energy = 868.2960 eV.
 EOMEE transition 2/B1u
 Total energy = -96.77911314 a.u.  Excitation energy = 869.7102 eV.
 EOMEE transition 3/B1u
 Total energy = -96.76048915 a.u.  Excitation energy = 870.2170 eV.
 Excited state properties for  CVS-EOMEE-CCSD transition 1/B1u
 Excited state properties for  CVS-EOMEE-CCSD transition 2/B1u
 Excited state properties for  CVS-EOMEE-CCSD transition 3/B1u
 Total job time:  81.72s(wall), 167.89s(cpu)
        *  Thank you very much for using Q-Chem.  Have a nice day.  *

                    Orbital Energies (a.u.)
 --------------------------------------------------------------

 Alpha MOs
 -- Occupied --
-32.780  -1.933  -0.853  -0.853  -0.853

          Ground-State Mulliken Net Atomic Charges

     Atom                 Charge (a.u.)
  ----------------------------------------
      1 Ne                    0.000000
  ----------------------------------------
  Sum of atomic charges =     0.000000

                    Cartesian Multipole Moments
 -----------------------------------------------------------------
    Charge (ESU x 10^10)
                 0.0000
    Dipole Moment (Debye)
         X       0.0000      Y       0.0000      Z       0.0000
       Tot       0.0000
    Quadrupole Moments (Debye-Ang)
        XX      -4.2212     XY      -0.0000     YY      -4.2212
        XZ      -0.0000     YZ       0.0000     ZZ      -4.2212

 STANDARD THERMODYNAMIC QUANTITIES AT   298.15 K  AND     1.00 ATM

   Translational Enthalpy:        0.889 kcal/mol
   Rotational Enthalpy:           0.000 kcal/mol
   Vibrational Enthalpy:          0.000 kcal/mol
   gas constant (RT):             0.592 kcal/mol
   Translational Entropy:        34.919  cal/mol.K
   Rotational Entropy:            0.000  cal/mol.K
   Vibrational Entropy:           0.000  cal/mol.K

   Total Enthalpy:                1.481 kcal/mol
   Total Entropy:                34.919  cal/mol.K
