 Q-Chem 5.1, Q-Chem, Inc., Pleasanton, CA (2018)
 Q-Chem 5.1.1 for Intel X86 EM64T Linux

User input:
--------------------------------------------------------------
$comment
NEXAFS AMMONIA / 6-311++G**+Rydberg
Optimized geometry: NH3_opt_coord.out
$end

$molecule
0 1
N      -0.0002568808    -0.2210075702    -0.0000000021
H       0.8838383819     0.5154343604     1.5287018716
H      -1.7658867303     0.5161842661     0.0000000000
H       0.8838383819     0.5154343604    -1.5287018716
Gh      0.0000000000     0.0000000000     0.0000000000
$end

$rem
    input_bohr = true
    jobtype = sp
    method = eom-ccsd
    cvs_ee_singlets    [15,10]
    basis = gen
    n_frozen_core = fc
    cc_trans_prop = true
    cc_eom_prop = true
   EOM_DAVIDSON_MAXVECTORS = 1000
   eom_preconv_singles = true
   eom_davidson_convergence = 4
   use_libqints = 1
   thresh = 14
   scf_convergence = 12
   cc_convergence = 12
   basis_lin_dep_thresh = 8
   cc_memory = 100000
   eom_shift = 14760
   cc_memory = 100000
   EOM_DAVIDSON_MAX_ITER 200
state_analysis = true
molden_format  = true
nto_pairs      = 4
pop_mulliken   = true
$end

$basis
N    0
S    6    1.000000
   6.29348000E+03    1.96979000E-03
   9.49044000E+02    1.49613000E-02
   2.18776000E+02    7.35006000E-02
   6.36916000E+01    2.48937000E-01
   1.88282000E+01    6.02460000E-01
   2.72023000E+00    2.56202000E-01
SP   3    1.000000
   3.06331000E+01    1.11906000E-01   3.83119000E-02
   7.02614000E+00    9.21666000E-01   2.37403000E-01
   2.11205000E+00   -2.56919000E-03   8.17592000E-01
SP   1    1.000000
   6.84009000E-01    1.00000000E+00   1.00000000E+00
SP   1    1.000000
   2.00878000E-01    1.00000000E+00   1.00000000E+00
SP   1    1.000000
   6.39000000E-02    1.00000000E+00   1.00000000E+00
D    1    1.000000
   9.13000000E-01    1.00000000E+00
****
H    0
S    3    1.000000
   3.38650000E+01    2.54938000E-02
   5.09479000E+00    1.90373000E-01
   1.15879000E+00    8.52161000E-01
S    1    1.000000
   3.25840000E-01    1.00000000E+00
S    1    1.000000
   1.02741000E-01    1.00000000E+00
S    1    1.000000
   3.60000000E-02    1.00000000E+00
P    1    1.000000
   7.50000000E-01    1.00000000E+00
****
H    0
S    3    1.000000
   3.38650000E+01    2.54938000E-02
   5.09479000E+00    1.90373000E-01
   1.15879000E+00    8.52161000E-01
S    1    1.000000
   3.25840000E-01    1.00000000E+00
S    1    1.000000
   1.02741000E-01    1.00000000E+00
S    1    1.000000
   3.60000000E-02    1.00000000E+00
P    1    1.000000
   7.50000000E-01    1.00000000E+00
****
H    0
S    3    1.000000
   3.38650000E+01    2.54938000E-02
   5.09479000E+00    1.90373000E-01
   1.15879000E+00    8.52161000E-01
S    1    1.000000
   3.25840000E-01    1.00000000E+00
S    1    1.000000
   1.02741000E-01    1.00000000E+00
S    1    1.000000
   3.60000000E-02    1.00000000E+00
P    1    1.000000
   7.50000000E-01    1.00000000E+00
****
Gh   0
S   1   1.00
        0.0112533427        1.0000000000
S   1   1.00
        0.0058583805        1.0000000000
S   1   1.00
        0.0033459739        1.0000000000
S   1   1.00
        0.0020484225        1.0000000000
S   1   1.00
        0.0013236424        1.0000000000
P   1   1.00
        0.0192542060        1.0000000000
P   1   1.00
        0.0099882106        1.0000000000
P   1   1.00
        0.0056893607        1.0000000000
P   1   1.00
        0.0034756797        1.0000000000
P   1   1.00
        0.0022420590        1.0000000000
D   1   1.00
        0.0274456919        1.0000000000
D   1   1.00
        0.0142043987        1.0000000000
D   1   1.00
        0.0080765930        1.0000000000
D   1   1.00
        0.0049271863        1.0000000000
D   1   1.00
        0.0031748110        1.0000000000
****
$end

--------------------------------------------------------------

   18     -56.2143669404      1.68e-13  Convergence criterion met
 Total energy in the final basis set =      -56.2143669404
 CCSD total energy           = -56.42985257
 EOMEE transition 1/A'
 Total energy = -41.67247361 a.u.  Excitation energy = 401.5687 eV.
 EOMEE transition 2/A'
 Total energy = -41.61129636 a.u.  Excitation energy = 403.2334 eV.
 EOMEE transition 3/A'
 Total energy = -41.58712440 a.u.  Excitation energy = 403.8912 eV.
 EOMEE transition 4/A'
 Total energy = -41.56289390 a.u.  Excitation energy = 404.5505 eV.
 EOMEE transition 5/A'
 Total energy = -41.56204822 a.u.  Excitation energy = 404.5735 eV.
 EOMEE transition 6/A'
 Total energy = -41.54802492 a.u.  Excitation energy = 404.9551 eV.
 EOMEE transition 7/A'
 Total energy = -41.54728403 a.u.  Excitation energy = 404.9753 eV.
 EOMEE transition 8/A'
 Total energy = -41.54397283 a.u.  Excitation energy = 405.0654 eV.
 EOMEE transition 9/A'
 Total energy = -41.53814382 a.u.  Excitation energy = 405.2240 eV.
 EOMEE transition 10/A'
 Total energy = -41.53071328 a.u.  Excitation energy = 405.4262 eV.
 EOMEE transition 11/A'
 Total energy = -41.53009744 a.u.  Excitation energy = 405.4430 eV.
 EOMEE transition 12/A'
 Total energy = -41.52402550 a.u.  Excitation energy = 405.6082 eV.
 EOMEE transition 13/A'
 Total energy = -41.52389785 a.u.  Excitation energy = 405.6117 eV.
 EOMEE transition 14/A'
 Total energy = -41.52192388 a.u.  Excitation energy = 405.6654 eV.
 EOMEE transition 15/A'
 Total energy = -41.51936496 a.u.  Excitation energy = 405.7350 eV.
 Excited state properties for  CVS-EOMEE-CCSD transition 1/A'
 Excited state properties for  CVS-EOMEE-CCSD transition 2/A'
 Excited state properties for  CVS-EOMEE-CCSD transition 3/A'
 Excited state properties for  CVS-EOMEE-CCSD transition 4/A'
 Excited state properties for  CVS-EOMEE-CCSD transition 5/A'
 Excited state properties for  CVS-EOMEE-CCSD transition 6/A'
 Excited state properties for  CVS-EOMEE-CCSD transition 7/A'
 Excited state properties for  CVS-EOMEE-CCSD transition 8/A'
 Excited state properties for  CVS-EOMEE-CCSD transition 9/A'
 Excited state properties for  CVS-EOMEE-CCSD transition 10/A'
 Excited state properties for  CVS-EOMEE-CCSD transition 11/A'
 Excited state properties for  CVS-EOMEE-CCSD transition 12/A'
 Excited state properties for  CVS-EOMEE-CCSD transition 13/A'
 Excited state properties for  CVS-EOMEE-CCSD transition 14/A'
 Excited state properties for  CVS-EOMEE-CCSD transition 15/A'
 EOMEE transition 1/A"
 Total energy = -41.61128615 a.u.  Excitation energy = 403.2337 eV.
 EOMEE transition 2/A"
 Total energy = -41.56208473 a.u.  Excitation energy = 404.5725 eV.
 EOMEE transition 3/A"
 Total energy = -41.54802836 a.u.  Excitation energy = 404.9550 eV.
 EOMEE transition 4/A"
 Total energy = -41.54398601 a.u.  Excitation energy = 405.0650 eV.
 EOMEE transition 5/A"
 Total energy = -41.53078093 a.u.  Excitation energy = 405.4244 eV.
 EOMEE transition 6/A"
 Total energy = -41.52403363 a.u.  Excitation energy = 405.6080 eV.
 EOMEE transition 7/A"
 Total energy = -41.52212350 a.u.  Excitation energy = 405.6599 eV.
 EOMEE transition 8/A"
 Total energy = -41.51598108 a.u.  Excitation energy = 405.8271 eV.
 EOMEE transition 9/A"
 Total energy = -41.51107409 a.u.  Excitation energy = 405.9606 eV.
 EOMEE transition 10/A"
 Total energy = -41.50945194 a.u.  Excitation energy = 406.0047 eV.
 Excited state properties for  CVS-EOMEE-CCSD transition 1/A"
 Excited state properties for  CVS-EOMEE-CCSD transition 2/A"
 Excited state properties for  CVS-EOMEE-CCSD transition 3/A"
 Excited state properties for  CVS-EOMEE-CCSD transition 4/A"
 Excited state properties for  CVS-EOMEE-CCSD transition 5/A"
 Excited state properties for  CVS-EOMEE-CCSD transition 6/A"
 Excited state properties for  CVS-EOMEE-CCSD transition 7/A"
 Excited state properties for  CVS-EOMEE-CCSD transition 8/A"
 Excited state properties for  CVS-EOMEE-CCSD transition 9/A"
 Excited state properties for  CVS-EOMEE-CCSD transition 10/A"

             Orbital Energies (a.u.) and Symmetries
 --------------------------------------------------------------

 Alpha MOs, Restricted
 -- Occupied --
-15.542  -1.145  -0.629  -0.629  -0.430
  1 A'    2 A'    3 A'    1 A"    4 A'

 Total job time:  755.37s(wall), 2911.40s(cpu)
        *  Thank you very much for using Q-Chem.  Have a nice day.  *

 Beta MOs, Restricted
 -- Occupied --
-15.542  -1.145  -0.629  -0.629  -0.430
  1 A'    2 A'    3 A'    1 A"    4 A'

          Ground-State Mulliken Net Atomic Charges

     Atom                 Charge (a.u.)
  ----------------------------------------
      1 N                    -0.670320
      2 H                     0.211794
      3 H                     0.211857
      4 H                     0.211794
      5 GH                    0.034876
  ----------------------------------------
  Sum of atomic charges =     0.000000

                    Cartesian Multipole Moments
 -----------------------------------------------------------------
    Charge (ESU x 10^10)
                 0.0000
    Dipole Moment (Debye)
         X       0.0014      Y       1.8182      Z       0.0000
       Tot       1.8182
    Quadrupole Moments (Debye-Ang)
        XX      -6.2250     XY      -0.0005     YY      -9.3721
        XZ      -0.0000     YZ      -0.0000     ZZ      -6.2297
