 Q-Chem 5.1, Q-Chem, Inc., Pleasanton, CA (2018)
 Q-Chem 5.1.1 for Intel X86 EM64T Linux

User input:
--------------------------------------------------------------
$comment
NEXAFS AMMONIA / 6-311++G**+Rydberg
Optimized geometry: NH3_opt_coord.out
$end

$molecule
0 1
N      -0.0002568808    -0.2210075702    -0.0000000021
H       0.8838383819     0.5154343604     1.5287018716
H      -1.7658867303     0.5161842661     0.0000000000
H       0.8838383819     0.5154343604    -1.5287018716
Gh      0.0000000000     0.0000000000     0.0000000000
$end

$rem
    input_bohr = true
    jobtype = sp
    method = eom-ccsd
    basis = gen
    n_frozen_core = fc
    cc_ref_prop = true
$end

$basis
N    0
S    6    1.000000
   6.29348000E+03    1.96979000E-03
   9.49044000E+02    1.49613000E-02
   2.18776000E+02    7.35006000E-02
   6.36916000E+01    2.48937000E-01
   1.88282000E+01    6.02460000E-01
   2.72023000E+00    2.56202000E-01
SP   3    1.000000
   3.06331000E+01    1.11906000E-01   3.83119000E-02
   7.02614000E+00    9.21666000E-01   2.37403000E-01
   2.11205000E+00   -2.56919000E-03   8.17592000E-01
SP   1    1.000000
   6.84009000E-01    1.00000000E+00   1.00000000E+00
SP   1    1.000000
   2.00878000E-01    1.00000000E+00   1.00000000E+00
SP   1    1.000000
   6.39000000E-02    1.00000000E+00   1.00000000E+00
D    1    1.000000
   9.13000000E-01    1.00000000E+00
****
H    0
S    3    1.000000
   3.38650000E+01    2.54938000E-02
   5.09479000E+00    1.90373000E-01
   1.15879000E+00    8.52161000E-01
S    1    1.000000
   3.25840000E-01    1.00000000E+00
S    1    1.000000
   1.02741000E-01    1.00000000E+00
S    1    1.000000
   3.60000000E-02    1.00000000E+00
P    1    1.000000
   7.50000000E-01    1.00000000E+00
****
H    0
S    3    1.000000
   3.38650000E+01    2.54938000E-02
   5.09479000E+00    1.90373000E-01
   1.15879000E+00    8.52161000E-01
S    1    1.000000
   3.25840000E-01    1.00000000E+00
S    1    1.000000
   1.02741000E-01    1.00000000E+00
S    1    1.000000
   3.60000000E-02    1.00000000E+00
P    1    1.000000
   7.50000000E-01    1.00000000E+00
****
H    0
S    3    1.000000
   3.38650000E+01    2.54938000E-02
   5.09479000E+00    1.90373000E-01
   1.15879000E+00    8.52161000E-01
S    1    1.000000
   3.25840000E-01    1.00000000E+00
S    1    1.000000
   1.02741000E-01    1.00000000E+00
S    1    1.000000
   3.60000000E-02    1.00000000E+00
P    1    1.000000
   7.50000000E-01    1.00000000E+00
****
Gh   0
S   1   1.00
        0.0112533427        1.0000000000
S   1   1.00
        0.0058583805        1.0000000000
S   1   1.00
        0.0033459739        1.0000000000
S   1   1.00
        0.0020484225        1.0000000000
S   1   1.00
        0.0013236424        1.0000000000
P   1   1.00
        0.0192542060        1.0000000000
P   1   1.00
        0.0099882106        1.0000000000
P   1   1.00
        0.0056893607        1.0000000000
P   1   1.00
        0.0034756797        1.0000000000
P   1   1.00
        0.0022420590        1.0000000000
D   1   1.00
        0.0274456919        1.0000000000
D   1   1.00
        0.0142043987        1.0000000000
D   1   1.00
        0.0080765930        1.0000000000
D   1   1.00
        0.0049271863        1.0000000000
D   1   1.00
        0.0031748110        1.0000000000
****
$end

--------------------------------------------------------------

   13     -56.2143659396      5.27e-09  Convergence criterion met
 Total energy in the final basis set =      -56.2143659396
 CCSD total energy           = -56.42985161

             Orbital Energies (a.u.) and Symmetries
 --------------------------------------------------------------

 Alpha MOs, Restricted
 -- Occupied --
-15.542  -1.145  -0.629  -0.629  -0.430
  1 A'    2 A'    3 A'    1 A"    4 A'

 Total job time:  17.90s(wall), 89.82s(cpu)
        *  Thank you very much for using Q-Chem.  Have a nice day.  *

 Beta MOs, Restricted
 -- Occupied --
-15.542  -1.145  -0.629  -0.629  -0.430
  1 A'    2 A'    3 A'    1 A"    4 A'

          Ground-State Mulliken Net Atomic Charges

     Atom                 Charge (a.u.)
  ----------------------------------------
      1 N                    -0.661636
      2 H                     0.210023
      3 H                     0.210158
      4 H                     0.210023
      5 GH                    0.031433
  ----------------------------------------
  Sum of atomic charges =     0.000000

                    Cartesian Multipole Moments
 -----------------------------------------------------------------
    Charge (ESU x 10^10)
                 0.0000
    Dipole Moment (Debye)
         X       0.0013      Y       1.7381      Z       0.0000
       Tot       1.7381
    Quadrupole Moments (Debye-Ang)
        XX      -6.3967     XY      -0.0006     YY      -9.6106
        XZ       0.0000     YZ       0.0000     ZZ      -6.4013
