 Q-Chem 5.1, Q-Chem, Inc., Pleasanton, CA (2018)
 Q-Chem 5.1.0 for Intel X86 EM64T Linux

User input:
--------------------------------------------------------------
$comment
URACIL N-edge
optimizion: mp2/cc-pvtz
$end

$molecule
0 1
Gh      0.0000000000     0.0000000000     0.0000000000
C      -0.0071423615    -1.7021374661     0.0000000000
H      -2.0688284730    -1.4402241233     0.0000000000
H      -0.1233798667    -2.7756752113     0.0000000000
H       0.0465189185     1.9881394681     0.0000000000
C      -1.2195356258     0.4021166886     0.0000000000
O      -2.2592155329     1.0304381418     0.0000000000
C       1.2879780632     0.3464493659     0.0000000000
O       2.3127366072     1.0053721559     0.0000000000
N       0.0344629504     0.9773985746     0.0000000000
N      -1.1728776526    -0.9822982369     0.0000000000
C       1.2010703878    -1.1043341925     0.0000000000
H       2.1122009607    -1.6769912546     0.0000000000
$end

$rem
    jobtype = sp
    method = eom-ccsd
    cvs_ee_singlets    [15,15]
    eom_preconv_singles = true
    basis = gen
    n_frozen_core = 4
    cc_trans_prop = true
   use_libqints = 1   !use new int library (will be def in trunk)
   thresh = 14   !this already should be default, but just in case
   scf_convergence = 12   !v. tight scf convergence, to reduce noise
   cc_convergence = 12   !tight CC, for the same reason
   basis_lin_dep_thresh = 8  !default is 6, use smaller, just in case
   cc_memory = 100000
   EOM_DAVIDSON_MAX_ITER 200
   EOM_DAVIDSON_MAXVECTORS = 1000
   eom_davidson_convergence = 4
   eom_shift = 14800
$end

$basis
Gh   0
S   1   1.00
        0.0112533427        1.0000000000
S   1   1.00
        0.0058583805        1.0000000000
S   1   1.00
        0.0033459739        1.0000000000
S   1   1.00
        0.0020484225        1.0000000000
S   1   1.00
        0.0013236424        1.0000000000
P   1   1.00
        0.0192542060        1.0000000000
P   1   1.00
        0.0099882106        1.0000000000
P   1   1.00
        0.0056893607        1.0000000000
P   1   1.00
        0.0034756797        1.0000000000
P   1   1.00
        0.0022420590        1.0000000000
D   1   1.00
        0.0274456919        1.0000000000
D   1   1.00
        0.0142043987        1.0000000000
D   1   1.00
        0.0080765930        1.0000000000
D   1   1.00
        0.0049271863        1.0000000000
D   1   1.00
        0.0031748110        1.0000000000
****
C    0
S    6    1.000000
   4.56324000E+03    1.96665000E-03
   6.82024000E+02    1.52306000E-02
   1.54973000E+02    7.61269000E-02
   4.44553000E+01    2.60801000E-01
   1.30290000E+01    6.16462000E-01
   1.82773000E+00    2.21006000E-01
SP   3    1.000000
   2.09642000E+01    1.14660000E-01   4.02487000E-02
   4.80331000E+00    9.19999000E-01   2.37594000E-01
   1.45933000E+00   -3.03068000E-03   8.15854000E-01
SP   1    1.000000
   4.83456000E-01    1.00000000E+00   1.00000000E+00
SP   1    1.000000
   1.45585000E-01    1.00000000E+00   1.00000000E+00
SP   1    1.000000
   4.38000000E-02    1.00000000E+00   1.00000000E+00
D    1    1.000000
   6.26000000E-01    1.00000000E+00
****
H    0
S    3    1.000000
   3.38650000E+01    2.54938000E-02
   5.09479000E+00    1.90373000E-01
   1.15879000E+00    8.52161000E-01
S    1    1.000000
   3.25840000E-01    1.00000000E+00
S    1    1.000000
   1.02741000E-01    1.00000000E+00
S    1    1.000000
   3.60000000E-02    1.00000000E+00
P    1    1.000000
   7.50000000E-01    1.00000000E+00
****
H    0
S    3    1.000000
   3.38650000E+01    2.54938000E-02
   5.09479000E+00    1.90373000E-01
   1.15879000E+00    8.52161000E-01
S    1    1.000000
   3.25840000E-01    1.00000000E+00
S    1    1.000000
   1.02741000E-01    1.00000000E+00
S    1    1.000000
   3.60000000E-02    1.00000000E+00
P    1    1.000000
   7.50000000E-01    1.00000000E+00
****
H    0
S    3    1.000000
   3.38650000E+01    2.54938000E-02
   5.09479000E+00    1.90373000E-01
   1.15879000E+00    8.52161000E-01
S    1    1.000000
   3.25840000E-01    1.00000000E+00
S    1    1.000000
   1.02741000E-01    1.00000000E+00
S    1    1.000000
   3.60000000E-02    1.00000000E+00
P    1    1.000000
   7.50000000E-01    1.00000000E+00
****
C    0
S    6    1.000000
   4.56324000E+03    1.96665000E-03
   6.82024000E+02    1.52306000E-02
   1.54973000E+02    7.61269000E-02
   4.44553000E+01    2.60801000E-01
   1.30290000E+01    6.16462000E-01
   1.82773000E+00    2.21006000E-01
SP   3    1.000000
   2.09642000E+01    1.14660000E-01   4.02487000E-02
   4.80331000E+00    9.19999000E-01   2.37594000E-01
   1.45933000E+00   -3.03068000E-03   8.15854000E-01
SP   1    1.000000
   4.83456000E-01    1.00000000E+00   1.00000000E+00
SP   1    1.000000
   1.45585000E-01    1.00000000E+00   1.00000000E+00
SP   1    1.000000
   4.38000000E-02    1.00000000E+00   1.00000000E+00
D    1    1.000000
   6.26000000E-01    1.00000000E+00
****
O    0
S    6    1.000000
   8.58850000E+03    1.89515000E-03
   1.29723000E+03    1.43859000E-02
   2.99296000E+02    7.07320000E-02
   8.73771000E+01    2.40001000E-01
   2.56789000E+01    5.94797000E-01
   3.74004000E+00    2.80802000E-01
SP   3    1.000000
   4.21175000E+01    1.13889000E-01   3.65114000E-02
   9.62837000E+00    9.20811000E-01   2.37153000E-01
   2.85332000E+00   -3.27447000E-03   8.19702000E-01
SP   1    1.000000
   9.05661000E-01    1.00000000E+00   1.00000000E+00
SP   1    1.000000
   2.55611000E-01    1.00000000E+00   1.00000000E+00
SP   1    1.000000
   8.45000000E-02    1.00000000E+00   1.00000000E+00
D    1    1.000000
   1.29200000E+00    1.00000000E+00
****
C    0
S    6    1.000000
   4.56324000E+03    1.96665000E-03
   6.82024000E+02    1.52306000E-02
   1.54973000E+02    7.61269000E-02
   4.44553000E+01    2.60801000E-01
   1.30290000E+01    6.16462000E-01
   1.82773000E+00    2.21006000E-01
SP   3    1.000000
   2.09642000E+01    1.14660000E-01   4.02487000E-02
   4.80331000E+00    9.19999000E-01   2.37594000E-01
   1.45933000E+00   -3.03068000E-03   8.15854000E-01
SP   1    1.000000
   4.83456000E-01    1.00000000E+00   1.00000000E+00
SP   1    1.000000
   1.45585000E-01    1.00000000E+00   1.00000000E+00
SP   1    1.000000
   4.38000000E-02    1.00000000E+00   1.00000000E+00
D    1    1.000000
   6.26000000E-01    1.00000000E+00
****
O    0
S    6    1.000000
   8.58850000E+03    1.89515000E-03
   1.29723000E+03    1.43859000E-02
   2.99296000E+02    7.07320000E-02
   8.73771000E+01    2.40001000E-01
   2.56789000E+01    5.94797000E-01
   3.74004000E+00    2.80802000E-01
SP   3    1.000000
   4.21175000E+01    1.13889000E-01   3.65114000E-02
   9.62837000E+00    9.20811000E-01   2.37153000E-01
   2.85332000E+00   -3.27447000E-03   8.19702000E-01
SP   1    1.000000
   9.05661000E-01    1.00000000E+00   1.00000000E+00
SP   1    1.000000
   2.55611000E-01    1.00000000E+00   1.00000000E+00
SP   1    1.000000
   8.45000000E-02    1.00000000E+00   1.00000000E+00
D    1    1.000000
   1.29200000E+00    1.00000000E+00
****
N    0
S    6    1.000000
   6.29348000E+03    1.96979000E-03
   9.49044000E+02    1.49613000E-02
   2.18776000E+02    7.35006000E-02
   6.36916000E+01    2.48937000E-01
   1.88282000E+01    6.02460000E-01
   2.72023000E+00    2.56202000E-01
SP   3    1.000000
   3.06331000E+01    1.11906000E-01   3.83119000E-02
   7.02614000E+00    9.21666000E-01   2.37403000E-01
   2.11205000E+00   -2.56919000E-03   8.17592000E-01
SP   1    1.000000
   6.84009000E-01    1.00000000E+00   1.00000000E+00
SP   1    1.000000
   2.00878000E-01    1.00000000E+00   1.00000000E+00
SP   1    1.000000
   6.39000000E-02    1.00000000E+00   1.00000000E+00
D    1    1.000000
   9.13000000E-01    1.00000000E+00
****
N    0
S    6    1.000000
   6.29348000E+03    1.96979000E-03
   9.49044000E+02    1.49613000E-02
   2.18776000E+02    7.35006000E-02
   6.36916000E+01    2.48937000E-01
   1.88282000E+01    6.02460000E-01
   2.72023000E+00    2.56202000E-01
SP   3    1.000000
   3.06331000E+01    1.11906000E-01   3.83119000E-02
   7.02614000E+00    9.21666000E-01   2.37403000E-01
   2.11205000E+00   -2.56919000E-03   8.17592000E-01
SP   1    1.000000
   6.84009000E-01    1.00000000E+00   1.00000000E+00
SP   1    1.000000
   2.00878000E-01    1.00000000E+00   1.00000000E+00
SP   1    1.000000
   6.39000000E-02    1.00000000E+00   1.00000000E+00
D    1    1.000000
   9.13000000E-01    1.00000000E+00
****
C    0
S    6    1.000000
   4.56324000E+03    1.96665000E-03
   6.82024000E+02    1.52306000E-02
   1.54973000E+02    7.61269000E-02
   4.44553000E+01    2.60801000E-01
   1.30290000E+01    6.16462000E-01
   1.82773000E+00    2.21006000E-01
SP   3    1.000000
   2.09642000E+01    1.14660000E-01   4.02487000E-02
   4.80331000E+00    9.19999000E-01   2.37594000E-01
   1.45933000E+00   -3.03068000E-03   8.15854000E-01
SP   1    1.000000
   4.83456000E-01    1.00000000E+00   1.00000000E+00
SP   1    1.000000
   1.45585000E-01    1.00000000E+00   1.00000000E+00
SP   1    1.000000
   4.38000000E-02    1.00000000E+00   1.00000000E+00
D    1    1.000000
   6.26000000E-01    1.00000000E+00
****
H    0
S    3    1.000000
   3.38650000E+01    2.54938000E-02
   5.09479000E+00    1.90373000E-01
   1.15879000E+00    8.52161000E-01
S    1    1.000000
   3.25840000E-01    1.00000000E+00
S    1    1.000000
   1.02741000E-01    1.00000000E+00
S    1    1.000000
   3.60000000E-02    1.00000000E+00
P    1    1.000000
   7.50000000E-01    1.00000000E+00
****

             Standard Nuclear Orientation (Angstroms)
    I     Atom           X                Y                Z
 ----------------------------------------------------------------
    1      GH      0.0000000000     0.0000000000     0.0000000000
    2      C       0.0071423614    -1.7021374661     0.0000000000
    3      H       2.0688284730    -1.4402241234     0.0000000000
    4      H       0.1233798666    -2.7756752113     0.0000000000
    5      H      -0.0465189184     1.9881394681     0.0000000000
    6      C       1.2195356258     0.4021166886     0.0000000000
    7      O       2.2592155330     1.0304381417     0.0000000000
    8      C      -1.2879780632     0.3464493660     0.0000000000
    9      O      -2.3127366071     1.0053721560     0.0000000000
   10      N      -0.0344629504     0.9773985746     0.0000000000
   11      N       1.1728776526    -0.9822982369     0.0000000000
   12      C      -1.2010703878    -1.1043341925     0.0000000000
   13      H      -2.1122009608    -1.6769912545     0.0000000000
 ----------------------------------------------------------------

   28    -412.5796300020      3.62e-13  Convergence criterion met
 CCSD total energy           = -413.94764787
 EOMEE transition 1/A'
 Total energy = -399.10110917 a.u.  Excitation energy = 403.9949 eV.
 EOMEE transition 2/A'
 Total energy = -399.08942032 a.u.  Excitation energy = 404.3129 eV.
 EOMEE transition 3/A'
 Total energy = -399.05381111 a.u.  Excitation energy = 405.2819 eV.
 EOMEE transition 4/A'
 Total energy = -399.03573071 a.u.  Excitation energy = 405.7739 eV.
 EOMEE transition 5/A'
 Total energy = -399.03290812 a.u.  Excitation energy = 405.8507 eV.
 EOMEE transition 6/A'
 Total energy = -399.02820340 a.u.  Excitation energy = 405.9787 eV.
 EOMEE transition 7/A'
 Total energy = -399.02345826 a.u.  Excitation energy = 406.1079 eV.
 EOMEE transition 8/A'
 Total energy = -399.00914701 a.u.  Excitation energy = 406.4973 eV.
 EOMEE transition 9/A'
 Total energy = -399.00638776 a.u.  Excitation energy = 406.5724 eV.
 EOMEE transition 10/A'
 Total energy = -399.00161678 a.u.  Excitation energy = 406.7022 eV.
 EOMEE transition 11/A'
 Total energy = -399.00089423 a.u.  Excitation energy = 406.7219 eV.
 EOMEE transition 12/A'
 Total energy = -398.99737401 a.u.  Excitation energy = 406.8176 eV.
 EOMEE transition 13/A'
 Total energy = -398.99602627 a.u.  Excitation energy = 406.8543 eV.
 EOMEE transition 14/A'
 EOMEE transition 15/A'
 EOMEE transition 1/A"
 Total energy = -399.11745564 a.u.  Excitation energy = 403.5501 eV.
 EOMEE transition 2/A"
 Total energy = -399.10626385 a.u.  Excitation energy = 403.8546 eV.
 EOMEE transition 3/A"
 Total energy = -399.07801191 a.u.  Excitation energy = 404.6234 eV.
 EOMEE transition 4/A"
 Total energy = -399.05894685 a.u.  Excitation energy = 405.1422 eV.
 EOMEE transition 5/A"
 Total energy = -399.03763707 a.u.  Excitation energy = 405.7220 eV.
 EOMEE transition 6/A"
 Total energy = -399.02871234 a.u.  Excitation energy = 405.9649 eV.
 EOMEE transition 7/A"
 Total energy = -399.00989890 a.u.  Excitation energy = 406.4768 eV.
 EOMEE transition 8/A"
 Total energy = -399.00063008 a.u.  Excitation energy = 406.7290 eV.
 EOMEE transition 9/A"
 Total energy = -398.99432012 a.u.  Excitation energy = 406.9007 eV.
 EOMEE transition 10/A"
 Total energy = -398.98678149 a.u.  Excitation energy = 407.1059 eV.
 EOMEE transition 11/A"
 Total energy = -398.98496295 a.u.  Excitation energy = 407.1554 eV.
 EOMEE transition 12/A"
 Total energy = -398.98403113 a.u.  Excitation energy = 407.1807 eV.
 EOMEE transition 13/A"
 Total energy = -398.98053086 a.u.  Excitation energy = 407.2760 eV.
 EOMEE transition 14/A"
 Total energy = -398.97994956 a.u.  Excitation energy = 407.2918 eV.
 EOMEE transition 15/A"
 Total energy = -398.97735778 a.u.  Excitation energy = 407.3623 eV.

             Orbital Energies (a.u.) and Symmetries
 --------------------------------------------------------------

 Alpha MOs, Restricted
 -- Occupied --
-20.550 -20.545 -15.648 -15.630 -11.426 -11.387 -11.345 -11.260
  1 A'    2 A'    3 A'    4 A'    5 A'    6 A'    7 A'    8 A'
 -1.442  -1.404  -1.319  -1.250  -1.093  -0.938  -0.906  -0.812
  9 A'   10 A'   11 A'   12 A'   13 A'   14 A'   15 A'   16 A'
 -0.770  -0.718  -0.681  -0.671  -0.657  -0.619  -0.605  -0.573
 17 A'   18 A'   19 A'    1 A"   20 A'   21 A'   22 A'    2 A"
 -0.528  -0.487  -0.452  -0.438  -0.371
  3 A"   23 A'   24 A'    4 A"    5 A"

 Beta MOs, Restricted
 -- Occupied --
-20.550 -20.545 -15.648 -15.630 -11.426 -11.387 -11.345 -11.260
  1 A'    2 A'    3 A'    4 A'    5 A'    6 A'    7 A'    8 A'
 -1.442  -1.404  -1.319  -1.250  -1.093  -0.938  -0.906  -0.812
  9 A'   10 A'   11 A'   12 A'   13 A'   14 A'   15 A'   16 A'
 -0.770  -0.718  -0.681  -0.671  -0.657  -0.619  -0.605  -0.573
 17 A'   18 A'   19 A'    1 A"   20 A'   21 A'   22 A'    2 A"
 -0.528  -0.487  -0.452  -0.438  -0.371
  3 A"   23 A'   24 A'    4 A"    5 A"

          Ground-State Mulliken Net Atomic Charges

     Atom                 Charge (a.u.)
  ----------------------------------------
      1 GH                    0.093642
      2 C                     0.073430
      3 H                     0.358086
      4 H                     0.199253
      5 H                     0.386038
      6 C                     0.245076
      7 O                    -0.381609
      8 C                     0.043177
      9 O                    -0.346677
     10 N                    -0.390466
     11 N                    -0.386362
     12 C                    -0.136830
     13 H                     0.243243
  ----------------------------------------
  Sum of atomic charges =    -0.000000

                    Cartesian Multipole Moments
 -----------------------------------------------------------------
    Charge (ESU x 10^10)
                 0.0000
    Dipole Moment (Debye)
         X       1.3793      Y      -4.9598      Z       0.0000
       Tot       5.1480
    Quadrupole Moments (Debye-Ang)
        XX     -60.6794     XY      -2.4971     YY     -38.3427
        XZ      -0.0000     YZ      -0.0000     ZZ     -46.9754

 Total job time:  11467.21s(wall), 84136.84s(cpu)
        *  Thank you very much for using Q-Chem.  Have a nice day.  *
