 Q-Chem 5.1, Q-Chem, Inc., Pleasanton, CA (2018)
 Q-Chem 5.1.0 for Intel X86 EM64T Linux

User input:
--------------------------------------------------------------
$comment
URACIL O-edge
optimizion: mp2/cc-pvtz
$end

$molecule
0 1
C        0.052842   -1.701332    0.000000
H       -2.016793   -1.512231    0.000000
H       -0.025494   -2.778299    0.000000
H       -0.023568    1.988544    0.000000
C       -1.232948    0.358893    0.000000
O       -2.294123    0.950188    0.000000
C        1.274970    0.391620    0.000000
O        2.275873    1.086244    0.000000
N        0.000000    0.978006    0.000000
N       -1.137535   -1.023018    0.000000
C        1.239239   -1.061325    0.000000
H        2.169983   -1.601520    0.000000
$end

$rem
    jobtype = sp
    method = eom-ccsd
    cvs_ee_singlets    [10,10]
    eom_preconv_singles = true
    basis = gen
    n_frozen_core = 2
    cc_trans_prop = true
   use_libqints = 1   !use new int library (will be def in trunk)
   thresh = 14   !this already should be default, but just in case
   scf_convergence = 12   !v. tight scf convergence, to reduce noise
   cc_convergence = 12   !tight CC, for the same reason
   basis_lin_dep_thresh = 8  !default is 6, use smaller, just in case
   cc_memory = 100000
   EOM_DAVIDSON_MAX_ITER 200
   EOM_DAVIDSON_MAXVECTORS = 1000
   eom_davidson_convergence = 4
   eom_shift = 19590
$end

$basis
C 0
aug-cc-pVDZ
N 0
aug-cc-pVDZ
O 0
aug-cc-pVTZ
H 0
aug-cc-pVDZ
$end
--------------------------------------------------------------

             Standard Nuclear Orientation (Angstroms)
    I     Atom           X                Y                Z
 ----------------------------------------------------------------
    1      C      -0.0071423615    -1.7021374661    -0.0000000000
    2      H      -2.0688284730    -1.4402241233     0.0000000000
    3      H      -0.1233798667    -2.7756752113     0.0000000000
    4      H       0.0465189185     1.9881394681    -0.0000000000
    5      C      -1.2195356258     0.4021166886     0.0000000000
    6      O      -2.2592155329     1.0304381418     0.0000000000
    7      C       1.2879780632     0.3464493659    -0.0000000000
    8      O       2.3127366072     1.0053721559    -0.0000000000
    9      N       0.0344629504     0.9773985746    -0.0000000000
   10      N      -1.1728776526    -0.9822982369     0.0000000000
   11      C       1.2010703878    -1.1043341925    -0.0000000000
   12      H       2.1122009607    -1.6769912546    -0.0000000000
 ----------------------------------------------------------------

   28    -412.5627059650      9.27e-13  Convergence criterion met
 CCSD total energy           = -413.93966117
 EOMEE transition 1/A'
 Total energy = -394.23913547 a.u.  Excitation energy = 536.0786 eV.
 EOMEE transition 2/A'
 Total energy = -394.23376255 a.u.  Excitation energy = 536.2248 eV.
 EOMEE transition 3/A'
 Total energy = -394.20885066 a.u.  Excitation energy = 536.9027 eV.
 EOMEE transition 4/A'
 Total energy = -394.20331400 a.u.  Excitation energy = 537.0533 eV.
 EOMEE transition 5/A'
 Total energy = -394.19561560 a.u.  Excitation energy = 537.2628 eV.
 EOMEE transition 6/A'
 Total energy = -394.18556295 a.u.  Excitation energy = 537.5364 eV.
 EOMEE transition 7/A'
 Total energy = -394.17674769 a.u.  Excitation energy = 537.7762 eV.
 EOMEE transition 8/A'
 Total energy = -394.17554231 a.u.  Excitation energy = 537.8090 eV.
 EOMEE transition 9/A'
 Total energy = -394.16736040 a.u.  Excitation energy = 538.0317 eV.
 EOMEE transition 10/A'
 Total energy = -394.15862608 a.u.  Excitation energy = 538.2693 eV.
 EOMEE transition 1/A"
 Total energy = -394.35754357 a.u.  Excitation energy = 532.8565 eV.
 EOMEE transition 2/A"
 Total energy = -394.32250722 a.u.  Excitation energy = 533.8099 eV.
 EOMEE transition 3/A"
 Total energy = -394.20299369 a.u.  Excitation energy = 537.0620 eV.
 EOMEE transition 4/A"
 Total energy = -394.19876266 a.u.  Excitation energy = 537.1772 eV.
 EOMEE transition 5/A"
 Total energy = -394.18976484 a.u.  Excitation energy = 537.4220 eV.
 EOMEE transition 6/A"
 Total energy = -394.18658522 a.u.  Excitation energy = 537.5085 eV.
 EOMEE transition 7/A"
 Total energy = -394.14088179 a.u.  Excitation energy = 538.7522 eV.
 EOMEE transition 8/A"
 Total energy = -394.12800843 a.u.  Excitation energy = 539.1025 eV.
 EOMEE transition 9/A"
 Total energy = -394.12746996 a.u.  Excitation energy = 539.1171 eV.
 EOMEE transition 10/A"
 Total energy = -394.11473408 a.u.  Excitation energy = 539.4637 eV.

             Orbital Energies (a.u.) and Symmetries
 --------------------------------------------------------------

 Alpha MOs, Restricted
 -- Occupied --
-20.549 -20.544 -15.652 -15.635 -11.429 -11.391 -11.348 -11.262
  1 A'    2 A'    3 A'    4 A'    5 A'    6 A'    7 A'    8 A'
 -1.439  -1.401  -1.316  -1.249  -1.091  -0.936  -0.904  -0.809
  9 A'   10 A'   11 A'   12 A'   13 A'   14 A'   15 A'   16 A'
 -0.767  -0.716  -0.679  -0.669  -0.654  -0.616  -0.603  -0.572
 17 A'   18 A'   19 A'    1 A"   20 A'   21 A'   22 A'    2 A"
 -0.526  -0.485  -0.450  -0.437  -0.369
  3 A"   23 A'   24 A'    4 A"    5 A"

 Beta MOs, Restricted
 -- Occupied --
-20.549 -20.544 -15.652 -15.635 -11.429 -11.391 -11.348 -11.262
  1 A'    2 A'    3 A'    4 A'    5 A'    6 A'    7 A'    8 A'
 -1.439  -1.401  -1.316  -1.249  -1.091  -0.936  -0.904  -0.809
  9 A'   10 A'   11 A'   12 A'   13 A'   14 A'   15 A'   16 A'
 -0.767  -0.716  -0.679  -0.669  -0.654  -0.616  -0.603  -0.572
 17 A'   18 A'   19 A'    1 A"   20 A'   21 A'   22 A'    2 A"
 -0.526  -0.485  -0.450  -0.437  -0.369
  3 A"   23 A'   24 A'    4 A"    5 A"

          Ground-State Mulliken Net Atomic Charges

     Atom                 Charge (a.u.)
  ----------------------------------------
      1 C                     0.772958
      2 H                    -0.059877
      3 H                    -0.334032
      4 H                    -0.047304
      5 C                     1.012913
      6 O                    -0.669707
      7 C                     0.351128
      8 O                    -0.680109
      9 N                    -0.508540
     10 N                    -0.570964
     11 C                     1.117063
     12 H                    -0.383529
  ----------------------------------------
  Sum of atomic charges =     0.000000

                    Cartesian Multipole Moments
 -----------------------------------------------------------------
    Charge (ESU x 10^10)
                 0.0000
    Dipole Moment (Debye)
         X      -1.3646      Y      -4.8252      Z      -0.0000
       Tot       5.0145
    Quadrupole Moments (Debye-Ang)
        XX     -60.0692     XY       2.4924     YY     -38.2086
        XZ       0.0000     YZ       0.0000     ZZ     -46.8516

 Total job time:  6895.41s(wall), 51890.15s(cpu)
        *  Thank you very much for using Q-Chem.  Have a nice day.  *
