 Q-Chem 5.1, Q-Chem, Inc., Pleasanton, CA (2018)
 Q-Chem 5.1.0 for Intel X86 EM64T Linux

User input:
--------------------------------------------------------------
$comment
URACIL Sn N-edge
optimizion: mp2/cc-pvtz
$end

$molecule
0 1
C        0.052842   -1.701332    0.000000
H       -2.016793   -1.512231    0.000000
H       -0.025494   -2.778299    0.000000
H       -0.023568    1.988544    0.000000
C       -1.232948    0.358893    0.000000
O       -2.294123    0.950188    0.000000
C        1.274970    0.391620    0.000000
O        2.275873    1.086244    0.000000
N        0.000000    0.978006    0.000000
N       -1.137535   -1.023018    0.000000
C        1.239239   -1.061325    0.000000
H        2.169983   -1.601520    0.000000
$end

$rem
    jobtype = sp
    method = eom-ccsd
    ee_singlets    [3,3]
    cvs_ee_singlets    [8,10]
    basis = 6-311++G**
    n_frozen_core = 4
    cc_trans_prop = 2
   eom_preconv_singles = true
   use_libqints = 1   !use new int library (will be def in trunk)
   thresh = 14   !this already should be default, but just in case
   scf_convergence = 12   !v. tight scf convergence, to reduce noise
   cc_convergence = 12   !tight CC, for the same reason
   basis_lin_dep_thresh = 8  !default is 6, use smaller, just in case
   cc_memory = 100000
   EOM_DAVIDSON_MAX_ITER 200
   EOM_DAVIDSON_MAXVECTORS = 1000
   eom_davidson_convergence = 4
$end
--------------------------------------------------------------

             Standard Nuclear Orientation (Angstroms)
    I     Atom           X                Y                Z
 ----------------------------------------------------------------
    1      C      -0.0071423615    -1.7021374661    -0.0000000000
    2      H      -2.0688284730    -1.4402241233     0.0000000000
    3      H      -0.1233798667    -2.7756752113     0.0000000000
    4      H       0.0465189185     1.9881394681    -0.0000000000
    5      C      -1.2195356258     0.4021166886     0.0000000000
    6      O      -2.2592155329     1.0304381418     0.0000000000
    7      C       1.2879780632     0.3464493659    -0.0000000000
    8      O       2.3127366072     1.0053721559    -0.0000000000
    9      N       0.0344629504     0.9773985746    -0.0000000000
   10      N      -1.1728776526    -0.9822982369     0.0000000000
   11      C       1.2010703878    -1.1043341925    -0.0000000000
   12      H       2.1122009607    -1.6769912546    -0.0000000000
 ----------------------------------------------------------------

   23    -412.5792505698      3.77e-13  Convergence criterion met
 CCSD total energy           = -413.94630531
 EOMEE transition 1/A'
 Total energy = -413.58912145 a.u.  Excitation energy = 9.7195 eV.
 EOMEE transition 2/A'
 Total energy = -413.56244145 a.u.  Excitation energy = 10.4455 eV.
 EOMEE transition 3/A'
 Total energy = -413.52820703 a.u.  Excitation energy = 11.3770 eV.
 EOMEE transition 1/A'
 Total energy = -413.73796125 a.u.  Excitation energy = 5.6693 eV.
 EOMEE transition 2/A'
 Total energy = -413.69875734 a.u.  Excitation energy = 6.7361 eV.
 EOMEE transition 3/A'
 Total energy = -413.68632864 a.u.  Excitation energy = 7.0743 eV.
 EOMEE transition 1/A"
 Total energy = -413.61614370 a.u.  Excitation energy = 8.9842 eV.
 EOMEE transition 2/A"
 Total energy = -413.58411264 a.u.  Excitation energy = 9.8558 eV.
 EOMEE transition 3/A"
 Total energy = -413.57544132 a.u.  Excitation energy = 10.0917 eV.
 EOMEE transition 1/A"
 Total energy = -413.75711326 a.u.  Excitation energy = 5.1482 eV.
 EOMEE transition 2/A"
 Total energy = -413.72326472 a.u.  Excitation energy = 6.0692 eV.
 EOMEE transition 3/A"
 Total energy = -413.68722615 a.u.  Excitation energy = 7.0499 eV.
 EOMEE transition 1/A'
 Total energy = -399.09949169 a.u.  Excitation energy = 404.0023 eV.
 EOMEE transition 2/A'
 EOMEE transition 3/A'
 EOMEE transition 4/A'
 Total energy = -399.02799254 a.u.  Excitation energy = 405.9479 eV.
 EOMEE transition 5/A'
 Total energy = -399.02525428 a.u.  Excitation energy = 406.0224 eV.
 EOMEE transition 6/A'
 Total energy = -399.02391307 a.u.  Excitation energy = 406.0589 eV.
 EOMEE transition 7/A'
 Total energy = -399.01493442 a.u.  Excitation energy = 406.3033 eV.
 EOMEE transition 8/A'
 Total energy = -398.98806217 a.u.  Excitation energy = 407.0345 eV.
 EOMEE transition 1/A"
 Total energy = -399.11580084 a.u.  Excitation energy = 403.5586 eV.
 EOMEE transition 2/A"
 Total energy = -399.10480114 a.u.  Excitation energy = 403.8579 eV.
 EOMEE transition 3/A"
 Total energy = -399.07627612 a.u.  Excitation energy = 404.6341 eV.
 EOMEE transition 4/A"
 Total energy = -399.05718985 a.u.  Excitation energy = 405.1534 eV.
 EOMEE transition 5/A"
 Total energy = -399.01945222 a.u.  Excitation energy = 406.1803 eV.
 EOMEE transition 6/A"
 Total energy = -399.01026980 a.u.  Excitation energy = 406.4302 eV.
 EOMEE transition 7/A"
 Total energy = -398.96638788 a.u.  Excitation energy = 407.6243 eV.
 EOMEE transition 8/A"
 Total energy = -398.95999629 a.u.  Excitation energy = 407.7982 eV.
 EOMEE transition 9/A"
 Total energy = -398.95273936 a.u.  Excitation energy = 407.9957 eV.
 EOMEE transition 10/A"
 Total energy = -398.94354021 a.u.  Excitation energy = 408.2460 eV.

             Orbital Energies (a.u.) and Symmetries
 --------------------------------------------------------------

 Alpha MOs, Restricted
 -- Occupied --
-20.551 -20.545 -15.648 -15.631 -11.426 -11.387 -11.345 -11.260
  1 A'    2 A'    3 A'    4 A'    5 A'    6 A'    7 A'    8 A'
 -1.442  -1.404  -1.319  -1.250  -1.093  -0.938  -0.907  -0.812
  9 A'   10 A'   11 A'   12 A'   13 A'   14 A'   15 A'   16 A'
 -0.770  -0.719  -0.681  -0.671  -0.657  -0.619  -0.605  -0.573
 17 A'   18 A'   19 A'    1 A"   20 A'   21 A'   22 A'    2 A"
 -0.528  -0.487  -0.452  -0.439  -0.371
  3 A"   23 A'   24 A'    4 A"    5 A"

 Beta MOs, Restricted
 -- Occupied --
-20.551 -20.545 -15.648 -15.631 -11.426 -11.387 -11.345 -11.260
  1 A'    2 A'    3 A'    4 A'    5 A'    6 A'    7 A'    8 A'
 -1.442  -1.404  -1.319  -1.250  -1.093  -0.938  -0.907  -0.812
  9 A'   10 A'   11 A'   12 A'   13 A'   14 A'   15 A'   16 A'
 -0.770  -0.719  -0.681  -0.671  -0.657  -0.619  -0.605  -0.573
 17 A'   18 A'   19 A'    1 A"   20 A'   21 A'   22 A'    2 A"
 -0.528  -0.487  -0.452  -0.439  -0.371
  3 A"   23 A'   24 A'    4 A"    5 A"

          Ground-State Mulliken Net Atomic Charges

     Atom                 Charge (a.u.)
  ----------------------------------------
      1 C                     0.093026
      2 H                     0.387156
      3 H                     0.226193
      4 H                     0.406725
      5 C                     0.569769
      6 O                    -0.441367
      7 C                     0.218011
      8 O                    -0.408517
      9 N                    -0.591918
     10 N                    -0.546948
     11 C                    -0.160334
     12 H                     0.248204
  ----------------------------------------
  Sum of atomic charges =    -0.000000

                    Cartesian Multipole Moments
 -----------------------------------------------------------------
    Charge (ESU x 10^10)
                -0.0000
    Dipole Moment (Debye)
         X      -1.3855      Y      -4.9595      Z      -0.0000
       Tot       5.1494
    Quadrupole Moments (Debye-Ang)
        XX     -60.6980     XY       2.5046     YY     -38.3422
        XZ      -0.0000     YZ      -0.0000     ZZ     -46.9622

 Total job time:  4047.73s(wall), 27739.63s(cpu)
        *  Thank you very much for using Q-Chem.  Have a nice day.  *
