 Q-Chem 5.1, Q-Chem, Inc., Pleasanton, CA (2018)
 Q-Chem 5.1.0 for Intel X86 EM64T Linux

User input:
--------------------------------------------------------------
$comment
URACIL S0 C-edge
optimizion: mp2/cc-pvtz
$end

$molecule
0 1
C        0.052842   -1.701332    0.000000
H       -2.016793   -1.512231    0.000000
H       -0.025494   -2.778299    0.000000
H       -0.023568    1.988544    0.000000
C       -1.232948    0.358893    0.000000
O       -2.294123    0.950188    0.000000
C        1.274970    0.391620    0.000000
O        2.275873    1.086244    0.000000
N        0.000000    0.978006    0.000000
N       -1.137535   -1.023018    0.000000
C        1.239239   -1.061325    0.000000
H        2.169983   -1.601520    0.000000
$end

$rem
    jobtype = sp
    method = eom-ccsd
    cvs_ee_singlets    [10,12]
    eom_preconv_singles = true
    basis = gen
    n_frozen_core = fc
    cc_trans_prop = true
   use_libqints = 1   !use new int library (will be def in trunk)
   thresh = 14   !this already should be default, but just in case
   scf_convergence = 12   !v. tight scf convergence, to reduce noise
   cc_convergence = 12   !tight CC, for the same reason
   basis_lin_dep_thresh = 8  !default is 6, use smaller, just in case
   cc_memory = 100000
   EOM_DAVIDSON_MAX_ITER 200
   EOM_DAVIDSON_MAXVECTORS = 1000
   eom_davidson_convergence = 4
   eom_shift = 10500
$end

$basis
C 0
aug-cc-pVTZ
N 0
aug-cc-pVDZ
O 0
aug-cc-pVDZ
H 0
aug-cc-pVDZ
$end

--------------------------------------------------------------

             Standard Nuclear Orientation (Angstroms)
    I     Atom           X                Y                Z
 ----------------------------------------------------------------
    1      C      -0.0071423615    -1.7021374661    -0.0000000000
    2      H      -2.0688284730    -1.4402241233     0.0000000000
    3      H      -0.1233798667    -2.7756752113     0.0000000000
    4      H       0.0465189185     1.9881394681    -0.0000000000
    5      C      -1.2195356258     0.4021166886     0.0000000000
    6      O      -2.2592155329     1.0304381418     0.0000000000
    7      C       1.2879780632     0.3464493659    -0.0000000000
    8      O       2.3127366072     1.0053721559    -0.0000000000
    9      N       0.0344629504     0.9773985746    -0.0000000000
   10      N      -1.1728776526    -0.9822982369     0.0000000000
   11      C       1.2010703878    -1.1043341925    -0.0000000000
   12      H       2.1122009607    -1.6769912546    -0.0000000000
 ----------------------------------------------------------------

   28    -412.5723212376      9.91e-13  Convergence criterion met
 CCSD total energy           = -413.93862911
 EOMEE transition 1/A'
 Total energy = -403.35403455 a.u.  Excitation energy = 288.0215 eV.
 EOMEE transition 2/A'
 Total energy = -403.31785392 a.u.  Excitation energy = 289.0060 eV.
 EOMEE transition 3/A'
 Total energy = -403.31167355 a.u.  Excitation energy = 289.1742 eV.
 EOMEE transition 4/A'
 Total energy = -403.29471004 a.u.  Excitation energy = 289.6358 eV.
 EOMEE transition 5/A'
 Total energy = -403.28703850 a.u.  Excitation energy = 289.8445 eV.
 EOMEE transition 6/A'
 Total energy = -403.27245562 a.u.  Excitation energy = 290.2413 eV.
 EOMEE transition 7/A'
 Total energy = -403.26212423 a.u.  Excitation energy = 290.5225 eV.
 EOMEE transition 8/A'
 Total energy = -403.25200831 a.u.  Excitation energy = 290.7977 eV.
 EOMEE transition 9/A'
 Total energy = -403.24216678 a.u.  Excitation energy = 291.0655 eV.
 EOMEE transition 10/A'
 Total energy = -403.23893287 a.u.  Excitation energy = 291.1535 eV.
 EOMEE transition 1/A"
 Total energy = -403.45010711 a.u.  Excitation energy = 285.4072 eV.
 EOMEE transition 2/A"
 Total energy = -403.40378307 a.u.  Excitation energy = 286.6677 eV.
 EOMEE transition 3/A"
 Total energy = -403.34296652 a.u.  Excitation energy = 288.3226 eV.
 EOMEE transition 4/A"
 Total energy = -403.32628049 a.u.  Excitation energy = 288.7767 eV.
 EOMEE transition 5/A"
 Total energy = -403.30440999 a.u.  Excitation energy = 289.3718 eV.
 EOMEE transition 6/A"
 Total energy = -403.29072797 a.u.  Excitation energy = 289.7441 eV.
 EOMEE transition 7/A"
 Total energy = -403.25574530 a.u.  Excitation energy = 290.6961 eV.
 EOMEE transition 8/A"
 Total energy = -403.25379718 a.u.  Excitation energy = 290.7491 eV.
 EOMEE transition 9/A"
 Total energy = -403.23279172 a.u.  Excitation energy = 291.3207 eV.
 EOMEE transition 10/A"
 Total energy = -403.22230523 a.u.  Excitation energy = 291.6060 eV.
 EOMEE transition 11/A"
 Total energy = -403.21553660 a.u.  Excitation energy = 291.7902 eV.
 EOMEE transition 12/A"
 Total energy = -403.20708281 a.u.  Excitation energy = 292.0202 eV.

             Orbital Energies (a.u.) and Symmetries
 --------------------------------------------------------------

 Alpha MOs, Restricted
 -- Occupied --
-20.558 -20.553 -15.651 -15.634 -11.421 -11.383 -11.342 -11.256
  1 A'    2 A'    3 A'    4 A'    5 A'    6 A'    7 A'    8 A'
 -1.440  -1.403  -1.316  -1.248  -1.090  -0.935  -0.903  -0.808
  9 A'   10 A'   11 A'   12 A'   13 A'   14 A'   15 A'   16 A'
 -0.766  -0.715  -0.679  -0.669  -0.655  -0.617  -0.603  -0.572
 17 A'   18 A'   19 A'    1 A"   20 A'   21 A'   22 A'    2 A"
 -0.526  -0.484  -0.450  -0.437  -0.370
  3 A"   23 A'   24 A'    4 A"    5 A"

 Beta MOs, Restricted
 -- Occupied --
-20.558 -20.553 -15.651 -15.634 -11.421 -11.383 -11.342 -11.256
  1 A'    2 A'    3 A'    4 A'    5 A'    6 A'    7 A'    8 A'
 -1.440  -1.403  -1.316  -1.248  -1.090  -0.935  -0.903  -0.808
  9 A'   10 A'   11 A'   12 A'   13 A'   14 A'   15 A'   16 A'
 -0.766  -0.715  -0.679  -0.669  -0.655  -0.617  -0.603  -0.572
 17 A'   18 A'   19 A'    1 A"   20 A'   21 A'   22 A'    2 A"
 -0.526  -0.484  -0.450  -0.437  -0.370
  3 A"   23 A'   24 A'    4 A"    5 A"

          Ground-State Mulliken Net Atomic Charges

     Atom                 Charge (a.u.)
  ----------------------------------------
      1 C                     0.575707
      2 H                    -0.067864
      3 H                    -0.850168
      4 H                    -0.020420
      5 C                     0.010212
      6 O                    -0.346343
      7 C                     0.189928
      8 O                    -0.429957
      9 N                     0.289562
     10 N                     0.366848
     11 C                     1.200281
     12 H                    -0.917787
  ----------------------------------------
  Sum of atomic charges =    -0.000000

                    Cartesian Multipole Moments
 -----------------------------------------------------------------
    Charge (ESU x 10^10)
                 0.0000
    Dipole Moment (Debye)
         X      -1.3668      Y      -4.8264      Z       0.0000
       Tot       5.0162
    Quadrupole Moments (Debye-Ang)
        XX     -60.1251     XY       2.5127     YY     -38.2306
        XZ       0.0000     YZ      -0.0000     ZZ     -46.7300

 Total job time:  12192.33s(wall), 80617.71s(cpu)
        *  Thank you very much for using Q-Chem.  Have a nice day.  *
