 Q-Chem 5.1, Q-Chem, Inc., Pleasanton, CA (2018)
 Q-Chem 5.1.0 for Intel X86 EM64T Linux

User input:
--------------------------------------------------------------
$comment
URACIL N-edge
optimizion: mp2/cc-pvtz
$end

$molecule
0 1
C        0.052842   -1.701332    0.000000
H       -2.016793   -1.512231    0.000000
H       -0.025494   -2.778299    0.000000
H       -0.023568    1.988544    0.000000
C       -1.232948    0.358893    0.000000
O       -2.294123    0.950188    0.000000
C        1.274970    0.391620    0.000000
O        2.275873    1.086244    0.000000
N        0.000000    0.978006    0.000000
N       -1.137535   -1.023018    0.000000
C        1.239239   -1.061325    0.000000
H        2.169983   -1.601520    0.000000
$end

$rem
    jobtype = sp
    method = eom-ccsd
    cvs_ee_singlets    [10,10]
    eom_preconv_singles = true
    basis = gen
    n_frozen_core = 4
    cc_trans_prop = true
   use_libqints = 1   !use new int library (will be def in trunk)
   thresh = 14   !this already should be default, but just in case
   scf_convergence = 12   !v. tight scf convergence, to reduce noise
   cc_convergence = 12   !tight CC, for the same reason
   basis_lin_dep_thresh = 8  !default is 6, use smaller, just in case
   cc_memory = 100000
   EOM_DAVIDSON_MAX_ITER 200
   EOM_DAVIDSON_MAXVECTORS = 1000
   eom_davidson_convergence = 4
   eom_shift = 14800
$end

$basis
C 0
aug-cc-pVDZ
N 0
aug-cc-pVTZ
O 0
aug-cc-pVDZ
H 0
aug-cc-pVDZ
$end

--------------------------------------------------------------

             Standard Nuclear Orientation (Angstroms)
    I     Atom           X                Y                Z
 ----------------------------------------------------------------
    1      C      -0.0071423615    -1.7021374661    -0.0000000000
    2      H      -2.0688284730    -1.4402241233     0.0000000000
    3      H      -0.1233798667    -2.7756752113     0.0000000000
    4      H       0.0465189185     1.9881394681    -0.0000000000
    5      C      -1.2195356258     0.4021166886     0.0000000000
    6      O      -2.2592155329     1.0304381418     0.0000000000
    7      C       1.2879780632     0.3464493659    -0.0000000000
    8      O       2.3127366072     1.0053721559    -0.0000000000
    9      N       0.0344629504     0.9773985746    -0.0000000000
   10      N      -1.1728776526    -0.9822982369     0.0000000000
   11      C       1.2010703878    -1.1043341925    -0.0000000000
   12      H       2.1122009607    -1.6769912546    -0.0000000000
 ----------------------------------------------------------------

   28    -412.5513263818      8.84e-13  Convergence criterion met
 CCSD total energy           = -413.90661392
 EOMEE transition 1/A'
 Total energy = -399.07234851 a.u.  Excitation energy = 403.6609 eV.
 EOMEE transition 2/A'
 Total energy = -399.06011510 a.u.  Excitation energy = 403.9938 eV.
 EOMEE transition 3/A'
 Total energy = -399.02262259 a.u.  Excitation energy = 405.0140 eV.
 EOMEE transition 4/A'
 Total energy = -399.00419257 a.u.  Excitation energy = 405.5155 eV.
 EOMEE transition 5/A'
 Total energy = -398.99983241 a.u.  Excitation energy = 405.6342 eV.
 EOMEE transition 6/A'
 Total energy = -398.99754571 a.u.  Excitation energy = 405.6964 eV.
 EOMEE transition 7/A'
 Total energy = -398.98958941 a.u.  Excitation energy = 405.9129 eV.
 EOMEE transition 8/A'
 Total energy = -398.96434909 a.u.  Excitation energy = 406.5997 eV.
 EOMEE transition 9/A'
 Total energy = -398.96194024 a.u.  Excitation energy = 406.6653 eV.
 EOMEE transition 10/A'
 Total energy = -398.96022546 a.u.  Excitation energy = 406.7119 eV.
 EOMEE transition 1/A"
 Total energy = -399.09087461 a.u.  Excitation energy = 403.1568 eV.
 EOMEE transition 2/A"
 Total energy = -399.07946678 a.u.  Excitation energy = 403.4672 eV.
 EOMEE transition 3/A"
 Total energy = -399.05033819 a.u.  Excitation energy = 404.2598 eV.
 EOMEE transition 4/A"
 Total energy = -399.03267299 a.u.  Excitation energy = 404.7405 eV.
 EOMEE transition 5/A"
 Total energy = -398.99705629 a.u.  Excitation energy = 405.7097 eV.
 EOMEE transition 6/A"
 Total energy = -398.98993096 a.u.  Excitation energy = 405.9036 eV.
 EOMEE transition 7/A"
 Total energy = -398.94814053 a.u.  Excitation energy = 407.0408 eV.
 EOMEE transition 8/A"
 Total energy = -398.93821740 a.u.  Excitation energy = 407.3108 eV.
 EOMEE transition 9/A"
 Total energy = -398.93265822 a.u.  Excitation energy = 407.4621 eV.
 EOMEE transition 10/A"
 Total energy = -398.92727690 a.u.  Excitation energy = 407.6085 eV.

             Orbital Energies (a.u.) and Symmetries
 --------------------------------------------------------------

 Alpha MOs, Restricted
 -- Occupied --
-20.559 -20.554 -15.647 -15.630 -11.429 -11.390 -11.348 -11.262
  1 A'    2 A'    3 A'    4 A'    5 A'    6 A'    7 A'    8 A'
 -1.441  -1.404  -1.316  -1.248  -1.091  -0.935  -0.904  -0.808
  9 A'   10 A'   11 A'   12 A'   13 A'   14 A'   15 A'   16 A'
 -0.766  -0.715  -0.680  -0.670  -0.655  -0.617  -0.603  -0.572
 17 A'   18 A'   19 A'    1 A"   20 A'   21 A'   22 A'    2 A"
 -0.527  -0.484  -0.450  -0.438  -0.369
  3 A"   23 A'   24 A'    4 A"    5 A"

 Beta MOs, Restricted
 -- Occupied --
-20.559 -20.554 -15.647 -15.630 -11.429 -11.390 -11.348 -11.262
  1 A'    2 A'    3 A'    4 A'    5 A'    6 A'    7 A'    8 A'
 -1.441  -1.404  -1.316  -1.248  -1.091  -0.935  -0.904  -0.808
  9 A'   10 A'   11 A'   12 A'   13 A'   14 A'   15 A'   16 A'
 -0.766  -0.715  -0.680  -0.670  -0.655  -0.617  -0.603  -0.572
 17 A'   18 A'   19 A'    1 A"   20 A'   21 A'   22 A'    2 A"
 -0.527  -0.484  -0.450  -0.438  -0.369
  3 A"   23 A'   24 A'    4 A"    5 A"

          Ground-State Mulliken Net Atomic Charges

     Atom                 Charge (a.u.)
  ----------------------------------------
      1 C                     0.572097
      2 H                    -0.397392
      3 H                    -0.349255
      4 H                    -0.379714
      5 C                     0.707112
      6 O                    -0.714330
      7 C                     0.474318
      8 O                    -0.793575
      9 N                     0.311119
     10 N                     0.079237
     11 C                     0.882963
     12 H                    -0.392580
  ----------------------------------------
  Sum of atomic charges =    -0.000000

                    Cartesian Multipole Moments
 -----------------------------------------------------------------
    Charge (ESU x 10^10)
                 0.0000
    Dipole Moment (Debye)
         X      -1.3617      Y      -4.8301      Z      -0.0000
       Tot       5.0184
    Quadrupole Moments (Debye-Ang)
        XX     -60.1440     XY       2.4867     YY     -38.2769
        XZ       0.0000     YZ       0.0000     ZZ     -46.8012

 Total job time:  5684.71s(wall), 45176.81s(cpu)
        *  Thank you very much for using Q-Chem.  Have a nice day.  *
