 Q-Chem 5.1, Q-Chem, Inc., Pleasanton, CA (2018)
 Q-Chem 5.1.0 for Intel X86 EM64T Linux

User input:
--------------------------------------------------------------
$comment
URACIL SN C-edge
optimizion: mp2/cc-pvtz
$end

$molecule
0 1
C        0.052842   -1.701332    0.000000
H       -2.016793   -1.512231    0.000000
H       -0.025494   -2.778299    0.000000
H       -0.023568    1.988544    0.000000
C       -1.232948    0.358893    0.000000
O       -2.294123    0.950188    0.000000
C        1.274970    0.391620    0.000000
O        2.275873    1.086244    0.000000
N        0.000000    0.978006    0.000000
N       -1.137535   -1.023018    0.000000
C        1.239239   -1.061325    0.000000
H        2.169983   -1.601520    0.000000
$end

$rem
    jobtype = sp
    method = eom-ccsd
    ee_singlets    [3,3]
    cvs_ee_singlets    [10,10]
    basis = 6-311++G**
    n_frozen_core = fc
    cc_trans_prop = 2
   eom_preconv_singles = true
   use_libqints = 1   !use new int library (will be def in trunk)
   thresh = 14   !this already should be default, but just in case
   scf_convergence = 12   !v. tight scf convergence, to reduce noise
   cc_convergence = 12   !tight CC, for the same reason
   basis_lin_dep_thresh = 8  !default is 6, use smaller, just in case
   cc_memory = 100000
   EOM_DAVIDSON_MAX_ITER 200
   EOM_DAVIDSON_MAXVECTORS = 1000
   eom_davidson_convergence = 4
$end
--------------------------------------------------------------

             Standard Nuclear Orientation (Angstroms)
    I     Atom           X                Y                Z
 ----------------------------------------------------------------
    1      C      -0.0071423615    -1.7021374661    -0.0000000000
    2      H      -2.0688284730    -1.4402241233     0.0000000000
    3      H      -0.1233798667    -2.7756752113     0.0000000000
    4      H       0.0465189185     1.9881394681    -0.0000000000
    5      C      -1.2195356258     0.4021166886     0.0000000000
    6      O      -2.2592155329     1.0304381418     0.0000000000
    7      C       1.2879780632     0.3464493659    -0.0000000000
    8      O       2.3127366072     1.0053721559    -0.0000000000
    9      N       0.0344629504     0.9773985746    -0.0000000000
   10      N      -1.1728776526    -0.9822982369     0.0000000000
   11      C       1.2010703878    -1.1043341925    -0.0000000000
   12      H       2.1122009607    -1.6769912546    -0.0000000000
 ----------------------------------------------------------------

   23    -412.5792505698      3.64e-13  Convergence criterion met
 CCSD total energy           = -413.86800691
 EOMEE transition 1/A'
 Total energy = -413.51151277 a.u.  Excitation energy = 9.7007 eV.
 EOMEE transition 2/A'
 Total energy = -413.48458412 a.u.  Excitation energy = 10.4335 eV.
 EOMEE transition 3/A'
 Total energy = -413.45041770 a.u.  Excitation energy = 11.3632 eV.
 EOMEE transition 1/A'
 Total energy = -413.65949588 a.u.  Excitation energy = 5.6739 eV.
 EOMEE transition 2/A'
 Total energy = -413.62024932 a.u.  Excitation energy = 6.7418 eV.
 EOMEE transition 3/A'
 Total energy = -413.60788100 a.u.  Excitation energy = 7.0784 eV.
 EOMEE transition 1/A"
 Total energy = -413.53829730 a.u.  Excitation energy = 8.9719 eV.
 EOMEE transition 2/A"
 Total energy = -413.50621465 a.u.  Excitation energy = 9.8449 eV.
 EOMEE transition 3/A"
 Total energy = -413.49756557 a.u.  Excitation energy = 10.0802 eV.
 EOMEE transition 1/A"
 Total energy = -413.67865475 a.u.  Excitation energy = 5.1525 eV.
 EOMEE transition 2/A"
 Total energy = -413.64510631 a.u.  Excitation energy = 6.0654 eV.
 EOMEE transition 3/A"
 Total energy = -413.62820705 a.u.  Excitation energy = 6.5253 eV.
 EOMEE transition 1/A'
 Total energy = -403.26974955 a.u.  Excitation energy = 288.3932 eV.
 EOMEE transition 2/A'
 EOMEE transition 3/A'
 EOMEE transition 4/A'
 EOMEE transition 5/A'
 EOMEE transition 6/A'
 Total energy = -403.18396661 a.u.  Excitation energy = 290.7275 eV.
 EOMEE transition 7/A'
 Total energy = -403.16828360 a.u.  Excitation energy = 291.1543 eV.
 EOMEE transition 8/A'
 Total energy = -403.15754777 a.u.  Excitation energy = 291.4464 eV.
 EOMEE transition 9/A'
 Total energy = -403.15684651 a.u.  Excitation energy = 291.4655 eV.
 EOMEE transition 10/A'
 Total energy = -403.15112351 a.u.  Excitation energy = 291.6212 eV.
 EOMEE transition 1/A"
 Total energy = -403.36355301 a.u.  Excitation energy = 285.8407 eV.
 EOMEE transition 2/A"
 Total energy = -403.31593310 a.u.  Excitation energy = 287.1365 eV.
 EOMEE transition 3/A"
 Total energy = -403.25468192 a.u.  Excitation energy = 288.8033 eV.
 EOMEE transition 4/A"
 Total energy = -403.23688248 a.u.  Excitation energy = 289.2876 eV.
 EOMEE transition 5/A"
 Total energy = -403.21113059 a.u.  Excitation energy = 289.9884 eV.
 EOMEE transition 6/A"
 Total energy = -403.20204990 a.u.  Excitation energy = 290.2355 eV.
 EOMEE transition 7/A"
 Total energy = -403.15770160 a.u.  Excitation energy = 291.4422 eV.
 EOMEE transition 8/A"
 Total energy = -403.15344512 a.u.  Excitation energy = 291.5581 eV.
 EOMEE transition 9/A"
 Total energy = -403.13908208 a.u.  Excitation energy = 291.9489 eV.
 EOMEE transition 10/A"
 Total energy = -403.11644690 a.u.  Excitation energy = 292.5648 eV.

             Orbital Energies (a.u.) and Symmetries
 --------------------------------------------------------------

 Alpha MOs, Restricted
 -- Occupied --
-20.551 -20.545 -15.648 -15.631 -11.426 -11.387 -11.345 -11.260
  1 A'    2 A'    3 A'    4 A'    5 A'    6 A'    7 A'    8 A'
 -1.442  -1.404  -1.319  -1.250  -1.093  -0.938  -0.907  -0.812
  9 A'   10 A'   11 A'   12 A'   13 A'   14 A'   15 A'   16 A'
 -0.770  -0.719  -0.681  -0.671  -0.657  -0.619  -0.605  -0.573
 17 A'   18 A'   19 A'    1 A"   20 A'   21 A'   22 A'    2 A"
 -0.528  -0.487  -0.452  -0.439  -0.371
  3 A"   23 A'   24 A'    4 A"    5 A"

 Beta MOs, Restricted
 -- Occupied --
-20.551 -20.545 -15.648 -15.631 -11.426 -11.387 -11.345 -11.260
  1 A'    2 A'    3 A'    4 A'    5 A'    6 A'    7 A'    8 A'
 -1.442  -1.404  -1.319  -1.250  -1.093  -0.938  -0.907  -0.812
  9 A'   10 A'   11 A'   12 A'   13 A'   14 A'   15 A'   16 A'
 -0.770  -0.719  -0.681  -0.671  -0.657  -0.619  -0.605  -0.573
 17 A'   18 A'   19 A'    1 A"   20 A'   21 A'   22 A'    2 A"
 -0.528  -0.487  -0.452  -0.439  -0.371
  3 A"   23 A'   24 A'    4 A"    5 A"

          Ground-State Mulliken Net Atomic Charges

     Atom                 Charge (a.u.)
  ----------------------------------------
      1 C                     0.093026
      2 H                     0.387156
      3 H                     0.226193
      4 H                     0.406725
      5 C                     0.569769
      6 O                    -0.441367
      7 C                     0.218011
      8 O                    -0.408517
      9 N                    -0.591918
     10 N                    -0.546948
     11 C                    -0.160334
     12 H                     0.248204
  ----------------------------------------
  Sum of atomic charges =    -0.000000

                    Cartesian Multipole Moments
 -----------------------------------------------------------------
    Charge (ESU x 10^10)
                 0.0000
    Dipole Moment (Debye)
         X      -1.3855      Y      -4.9595      Z      -0.0000
       Tot       5.1494
    Quadrupole Moments (Debye-Ang)
        XX     -60.6980     XY       2.5046     YY     -38.3422
        XZ       0.0000     YZ       0.0000     ZZ     -46.9622

 Total job time:  3310.55s(wall), 25040.68s(cpu)
        *  Thank you very much for using Q-Chem.  Have a nice day.  *
