 Q-Chem 5.1, Q-Chem, Inc., Pleasanton, CA (2018)
 Q-Chem 5.1.0 for Intel X86 EM64T Linux

User input:
--------------------------------------------------------------
$comment
NEXAFS VINYLFLUORIDE
Optimized geometry with CFour
$end

$molecule
0 1
C
Gh   1 nc2
F    2 fn3         1 fnc3
C    3 cf4         2 cfn4          1 dih4
H    4 hc5         1 hcc5          2 dih4
H    1 hc6         4 hcc6          3 dih6
H    1 hc7         4 hcc7          3 dih4

nc2         1.196145
fn3         1.174610
fnc3        178.580
cf4         1.342808
cfn4         18.424
dih4        180.000
hc5         1.080830
hcc5        108.653
hc6         1.479184
hcc6        103.458
dih6          0.000
hc7         0.928288
hcc7        157.426
$end

$rem
!    input_bohr = true
    jobtype = sp
    method = eom-ccsd
    cvs_ee_singlets    [5,5]
    eom_preconv_singles = true
    eom_davidson_convergence = 3
    eom_davidson_threshold = 00103
    eom_davidson_maxvectors = 1000
    !EOM_GPLMR_MSUBSIZE = 4
    basis = gen
    n_frozen_core = fc
    cc_trans_prop = true
$end

$basis
C    0
S    6    1.000000
   4.56324000E+03    1.96665000E-03
   6.82024000E+02    1.52306000E-02
   1.54973000E+02    7.61269000E-02
   4.44553000E+01    2.60801000E-01
   1.30290000E+01    6.16462000E-01
   1.82773000E+00    2.21006000E-01
SP   3    1.000000
   2.09642000E+01    1.14660000E-01   4.02487000E-02
   4.80331000E+00    9.19999000E-01   2.37594000E-01
   1.45933000E+00   -3.03068000E-03   8.15854000E-01
SP   1    1.000000
   4.83456000E-01    1.00000000E+00   1.00000000E+00
SP   1    1.000000
   1.45585000E-01    1.00000000E+00   1.00000000E+00
SP   1    1.000000
   4.38000000E-02    1.00000000E+00   1.00000000E+00
D    1    1.000000
   6.26000000E-01    1.00000000E+00
****
C    0
S    6    1.000000
   4.56324000E+03    1.96665000E-03
   6.82024000E+02    1.52306000E-02
   1.54973000E+02    7.61269000E-02
   4.44553000E+01    2.60801000E-01
   1.30290000E+01    6.16462000E-01
   1.82773000E+00    2.21006000E-01
SP   3    1.000000
   2.09642000E+01    1.14660000E-01   4.02487000E-02
   4.80331000E+00    9.19999000E-01   2.37594000E-01
   1.45933000E+00   -3.03068000E-03   8.15854000E-01
SP   1    1.000000
   4.83456000E-01    1.00000000E+00   1.00000000E+00
SP   1    1.000000
   1.45585000E-01    1.00000000E+00   1.00000000E+00
SP   1    1.000000
   4.38000000E-02    1.00000000E+00   1.00000000E+00
D    1    1.000000
   6.26000000E-01    1.00000000E+00
****
F    0
S    6    1.000000
   1.14271000E+04    1.80093000E-03
   1.72235000E+03    1.37419000E-02
   3.95746000E+02    6.81334000E-02
   1.15139000E+02    2.33325000E-01
   3.36026000E+01    5.89086000E-01
   4.91901000E+00    2.99505000E-01
SP   3    1.000000
   5.54441000E+01    1.14536000E-01   3.54609000E-02
   1.26323000E+01    9.20512000E-01   2.37451000E-01
   3.71756000E+00   -3.37804000E-03   8.20458000E-01
SP   1    1.000000
   1.16545000E+00    1.00000000E+00   1.00000000E+00
SP   1    1.000000
   3.21892000E-01    1.00000000E+00   1.00000000E+00
SP   1    1.000000
   1.07600000E-01    1.00000000E+00   1.00000000E+00
D    1    1.000000
   1.75000000E+00    1.00000000E+00
****
H    0
S    3    1.000000
   3.38650000E+01    2.54938000E-02
   5.09479000E+00    1.90373000E-01
   1.15879000E+00    8.52161000E-01
S    1    1.000000
   3.25840000E-01    1.00000000E+00
S    1    1.000000
   1.02741000E-01    1.00000000E+00
S    1    1.000000
   3.60000000E-02    1.00000000E+00
P    1    1.000000
   7.50000000E-01    1.00000000E+00
****
H    0
S    3    1.000000
   3.38650000E+01    2.54938000E-02
   5.09479000E+00    1.90373000E-01
   1.15879000E+00    8.52161000E-01
S    1    1.000000
   3.25840000E-01    1.00000000E+00
S    1    1.000000
   1.02741000E-01    1.00000000E+00
S    1    1.000000
   3.60000000E-02    1.00000000E+00
P    1    1.000000
   7.50000000E-01    1.00000000E+00
****
H    0
S    3    1.000000
   3.38650000E+01    2.54938000E-02
   5.09479000E+00    1.90373000E-01
   1.15879000E+00    8.52161000E-01
S    1    1.000000
   3.25840000E-01    1.00000000E+00
S    1    1.000000
   1.02741000E-01    1.00000000E+00
S    1    1.000000
   3.60000000E-02    1.00000000E+00
P    1    1.000000
   7.50000000E-01    1.00000000E+00
****
Gh   0
S   1   1.00
        0.0058583805        1.0000000000
S   1   1.00
        0.0033459739        1.0000000000
S   1   1.00
        0.0020484225        1.0000000000
P   1   1.00
        0.0099882106        1.0000000000
P   1   1.00
        0.0056893607        1.0000000000
P   1   1.00
        0.0034756797        1.0000000000
D   1   1.00
        0.0142043987        1.0000000000
D   1   1.00
        0.0080765930        1.0000000000
D   1   1.00
        0.0049271863        1.0000000000
****
$end

--------------------------------------------------------------

             Standard Nuclear Orientation (Angstroms)
    I     Atom           X                Y                Z
 ----------------------------------------------------------------
    1      C       1.1826448394     0.0548061476     0.0000000000
    2      GH     -0.0128243667     0.0950086116     0.0000000000
    3      F      -1.1854318948     0.1635668874    -0.0000000000
    4      C       0.0616065814    -0.3344575735     0.0000000000
    5      H       0.0709590846    -1.4152471088    -0.0000000000
    6      H       1.0359692299     1.5267000199     0.0000000000
    7      H       2.1092745806    -0.0006549534     0.0000000000
 ----------------------------------------------------------------

   18    -176.7998142669      2.07e-09  Convergence criterion met
 CCSD total energy           = -177.31428397
 EOMEE transition 1/A'
 Total energy = -166.80450164 a.u.  Excitation energy = 285.9857 eV.
 EOMEE transition 2/A'
 Total energy = -166.71160030 a.u.  Excitation energy = 288.5137 eV.
 EOMEE transition 3/A'
 Total energy = -166.68230715 a.u.  Excitation energy = 289.3108 eV.
 EOMEE transition 4/A'
 Total energy = -166.67477652 a.u.  Excitation energy = 289.5157 eV.
 EOMEE transition 5/A'
 Total energy = -166.67353915 a.u.  Excitation energy = 289.5494 eV.
 EOMEE transition 1/A"
 Total energy = -166.76904150 a.u.  Excitation energy = 286.9506 eV.
 EOMEE transition 2/A"
 Total energy = -166.67900928 a.u.  Excitation energy = 289.4005 eV.
 EOMEE transition 3/A"
 Total energy = -166.63855224 a.u.  Excitation energy = 290.5014 eV.
 EOMEE transition 4/A"
 Total energy = -166.63624685 a.u.  Excitation energy = 290.5642 eV.
 EOMEE transition 5/A"
 Total energy = -166.63158955 a.u.  Excitation energy = 290.6909 eV.

             Orbital Energies (a.u.) and Symmetries
 --------------------------------------------------------------

 Alpha MOs, Restricted
 -- Occupied --
-26.327 -11.326 -11.251  -1.638  -1.114  -0.847  -0.764  -0.743
  1 A'    2 A'    3 A'    4 A'    5 A'    6 A'    7 A'    8 A'
 -0.704  -0.608  -0.442  -0.427
  1 A"    9 A'    2 A"   10 A'

 Beta MOs, Restricted
 -- Occupied --
-26.327 -11.326 -11.251  -1.638  -1.114  -0.847  -0.764  -0.743
  1 A'    2 A'    3 A'    4 A'    5 A'    6 A'    7 A'    8 A'
 -0.704  -0.608  -0.442  -0.427
  1 A"    9 A'    2 A"   10 A'

          Ground-State Mulliken Net Atomic Charges

     Atom                 Charge (a.u.)
  ----------------------------------------
      1 C                     0.022860
      2 GH                    0.003916
      3 F                    -0.176631
      4 C                    -0.124437
      5 H                     0.084836
      6 H                    -0.028172
      7 H                     0.217628
  ----------------------------------------
  Sum of atomic charges =     0.000000

                    Cartesian Multipole Moments
 -----------------------------------------------------------------
    Charge (ESU x 10^10)
                 0.0000
    Dipole Moment (Debye)
         X       1.7584      Y      -1.0975      Z      -0.0000
       Tot       2.0728
    Quadrupole Moments (Debye-Ang)
        XX     -17.1989     XY      -0.1474     YY     -17.4819
        XZ      -0.0000     YZ      -0.0000     ZZ     -18.9924

 Total job time:  1306.40s(wall), 812.52s(cpu)
        *  Thank you very much for using Q-Chem.  Have a nice day.  *
