 Q-Chem 5.1, Q-Chem, Inc., Pleasanton, CA (2018)
 Q-Chem 5.1.0 for Intel X86 EM64T Linux

User input:
--------------------------------------------------------------
$comment
NEXAFS VINYLFLUORIDE
$end

$molecule
0 1
C       1.1793501531     0.1997297036     0.0000000000
F      -1.1529022759     0.2247768549     0.0000000000
C       0.0163188924    -0.4355678917     0.0000000000
H      -0.1189529826    -1.5078994676     0.0000000000
H       1.2308255218     1.2785613540     0.0000000000
H       2.0902345342    -0.3786192262     0.0000000000
$end

$rem
!    input_bohr = true
    jobtype = sp
    method = eom-ccsd
    cvs_ee_singlets    [5,5]
    basis = 6-311++G**
    print_general_basis = true
    n_frozen_core = fc
    cc_trans_prop = true
    eom_preconv_singles = true
    eom_davidson_convergence = 3
    eom_davidson_threshold = 00103
state_analysis = true
molden_format  = true
nto_pairs      = 4
pop_mulliken   = true
$end

--------------------------------------------------------------

             Standard Nuclear Orientation (Angstroms)
    I     Atom           X                Y                Z
 ----------------------------------------------------------------
    1      C       1.1793501171     0.1997294858    -0.0000000000
    2      F      -1.1529023119     0.2247766372    -0.0000000000
    3      C       0.0163188564    -0.4355681094     0.0000000000
    4      H      -0.1189530186    -1.5078996853     0.0000000000
    5      H       1.2308254859     1.2785611362    -0.0000000000
    6      H       2.0902344982    -0.3786194440     0.0000000000
 ----------------------------------------------------------------

   13    -176.9366625414      3.54e-09  Convergence criterion met
 CCSD total energy           = -177.44759618
 EOMEE transition 1/A'
 Total energy = -166.85681058 a.u.  Excitation energy = 288.1899 eV.
 EOMEE transition 2/A'
 Total energy = -166.83386419 a.u.  Excitation energy = 288.8143 eV.
 EOMEE transition 3/A'
 Total energy = -166.80782559 a.u.  Excitation energy = 289.5229 eV.
 EOMEE transition 4/A'
 Total energy = -166.79451573 a.u.  Excitation energy = 289.8851 eV.
 EOMEE transition 5/A'
 Total energy = -166.76645801 a.u.  Excitation energy = 290.6486 eV.
 Excited state properties for  CVS-EOMEE-CCSD transition 1/A'
 Excited state properties for  CVS-EOMEE-CCSD transition 2/A'
 Excited state properties for  CVS-EOMEE-CCSD transition 3/A'
 Excited state properties for  CVS-EOMEE-CCSD transition 4/A'
 Excited state properties for  CVS-EOMEE-CCSD transition 5/A'
 EOMEE transition 1/A"
 Total energy = -166.94058609 a.u.  Excitation energy = 285.9103 eV.
 EOMEE transition 2/A"
 Total energy = -166.86230304 a.u.  Excitation energy = 288.0405 eV.
 EOMEE transition 3/A"
 Total energy = -166.79575560 a.u.  Excitation energy = 289.8513 eV.
 EOMEE transition 4/A"
 Total energy = -166.73421587 a.u.  Excitation energy = 291.5259 eV.
 EOMEE transition 5/A"
 Total energy = -166.69828651 a.u.  Excitation energy = 292.5036 eV.
 Excited state properties for  CVS-EOMEE-CCSD transition 1/A"
 Excited state properties for  CVS-EOMEE-CCSD transition 2/A"
 Excited state properties for  CVS-EOMEE-CCSD transition 3/A"
 Excited state properties for  CVS-EOMEE-CCSD transition 4/A"
 Excited state properties for  CVS-EOMEE-CCSD transition 5/A"

             Orbital Energies (a.u.) and Symmetries
 --------------------------------------------------------------

 Alpha MOs, Restricted
 -- Occupied --
-26.310 -11.332 -11.240  -1.629  -1.055  -0.840  -0.740  -0.691
  1 A'    2 A'    3 A'    4 A'    5 A'    6 A'    7 A'    1 A"
 -0.686  -0.591  -0.562  -0.386
  8 A'    9 A'   10 A'    2 A"

 Beta MOs, Restricted
 -- Occupied --
-26.310 -11.332 -11.240  -1.629  -1.055  -0.840  -0.740  -0.691
  1 A'    2 A'    3 A'    4 A'    5 A'    6 A'    7 A'    1 A"
 -0.686  -0.591  -0.562  -0.386
  8 A'    9 A'   10 A'    2 A"

          Ground-State Mulliken Net Atomic Charges

     Atom                 Charge (a.u.)
  ----------------------------------------
      1 C                    -0.250461
      2 F                    -0.161411
      3 C                    -0.020824
      4 H                     0.169571
      5 H                     0.148351
      6 H                     0.114774
  ----------------------------------------
  Sum of atomic charges =    -0.000000

                    Cartesian Multipole Moments
 -----------------------------------------------------------------
    Charge (ESU x 10^10)
                -0.0000
    Dipole Moment (Debye)
         X       1.4919      Y      -0.9315      Z       0.0000
       Tot       1.7588
    Quadrupole Moments (Debye-Ang)
        XX     -18.0169     XY       0.9545     YY     -15.3190
        XZ       0.0000     YZ       0.0000     ZZ     -19.4634

 Total job time:  196.71s(wall), 190.68s(cpu)
        *  Thank you very much for using Q-Chem.  Have a nice day.  *
