 Q-Chem 5.1, Q-Chem, Inc., Pleasanton, CA (2018)
 Q-Chem 5.1.0 for Intel X86 EM64T Linux

User input:
--------------------------------------------------------------
$comment
NEXAFS VINYLFLUORIDE
$end

$molecule
0 1
C       1.1826448394     0.0548061476     0.0000000000
F      -1.1854318948     0.1635668874     0.0000000000
C       0.0616065814    -0.3344575735     0.0000000000
H       0.0709590846    -1.4152471088     0.0000000000
H       1.0359692299     1.5267000199     0.0000000000
H       2.1092745806    -0.0006549534     0.0000000000
$end

$rem
!    input_bohr = true
    jobtype = sp
    method = eom-ccsd
    cvs_ee_singlets    [5,5]
    basis = 6-311++G**
    n_frozen_core = fc
    cc_trans_prop = true
    eom_preconv_singles = true
    eom_davidson_convergence = 3
    eom_davidson_threshold = 00103
$end

--------------------------------------------------------------

             Standard Nuclear Orientation (Angstroms)
    I     Atom           X                Y                Z
 ----------------------------------------------------------------
    1      C       1.1821106307     0.0587620256    -0.0000000000
    2      F      -1.1859658446     0.1675284028    -0.0000000000
    3      C       0.0610714460    -0.3304990268     0.0000000000
    4      H       0.0704213763    -1.4112885843     0.0000000000
    5      H       1.0354385251     1.5306562471    -0.0000000000
    6      H       2.1087402398     0.0032987187    -0.0000000000
 ----------------------------------------------------------------

   13    -176.7996992867      4.95e-09  Convergence criterion met
 CCSD total energy           = -177.31401685
 EOMEE transition 1/A'
 Total energy = -166.80421646 a.u.  Excitation energy = 285.9862 eV.
 EOMEE transition 2/A'
 Total energy = -166.70981503 a.u.  Excitation energy = 288.5550 eV.
 EOMEE transition 3/A'
 Total energy = -166.67884947 a.u.  Excitation energy = 289.3976 eV.
 EOMEE transition 4/A'
 Total energy = -166.67317333 a.u.  Excitation energy = 289.5521 eV.
 EOMEE transition 5/A'
 Total energy = -166.66532240 a.u.  Excitation energy = 289.7657 eV.
 EOMEE transition 1/A"
 Total energy = -166.76862861 a.u.  Excitation energy = 286.9546 eV.
 EOMEE transition 2/A"
 Total energy = -166.70310967 a.u.  Excitation energy = 288.7375 eV.
 EOMEE transition 3/A"
 Total energy = -166.66248849 a.u.  Excitation energy = 289.8428 eV.
 EOMEE transition 4/A"
 Total energy = -166.59373410 a.u.  Excitation energy = 291.7137 eV.
 EOMEE transition 5/A"
 Total energy = -166.56954331 a.u.  Excitation energy = 292.3720 eV.

             Orbital Energies (a.u.) and Symmetries
 --------------------------------------------------------------

 Alpha MOs, Restricted
 -- Occupied --
-26.327 -11.326 -11.251  -1.639  -1.114  -0.847  -0.764  -0.743
  1 A'    2 A'    3 A'    4 A'    5 A'    6 A'    7 A'    8 A'
 -0.704  -0.608  -0.442  -0.427
  1 A"    9 A'    2 A"   10 A'

 Beta MOs, Restricted
 -- Occupied --
-26.327 -11.326 -11.251  -1.639  -1.114  -0.847  -0.764  -0.743
  1 A'    2 A'    3 A'    4 A'    5 A'    6 A'    7 A'    8 A'
 -0.704  -0.608  -0.442  -0.427
  1 A"    9 A'    2 A"   10 A'

          Ground-State Mulliken Net Atomic Charges

     Atom                 Charge (a.u.)
  ----------------------------------------
      1 C                     0.006818
      2 F                    -0.188180
      3 C                    -0.114201
      4 H                     0.100792
      5 H                    -0.010850
      6 H                     0.205620
  ----------------------------------------
  Sum of atomic charges =    -0.000000

                    Cartesian Multipole Moments
 -----------------------------------------------------------------
    Charge (ESU x 10^10)
                -0.0000
    Dipole Moment (Debye)
         X       1.7616      Y      -1.0970      Z      -0.0000
       Tot       2.0753
    Quadrupole Moments (Debye-Ang)
        XX     -17.1938     XY      -0.1369     YY     -17.4848
        XZ       0.0000     YZ       0.0000     ZZ     -18.9874

 Total job time:  148.53s(wall), 145.92s(cpu)
        *  Thank you very much for using Q-Chem.  Have a nice day.  *
