 Q-Chem 5.1, Q-Chem, Inc., Pleasanton, CA (2018)
 Q-Chem 5.1.0 for Intel X86 EM64T Linux

User input:
--------------------------------------------------------------
$comment
NEXAFS VINYLFLUORIDE / aug-cc-pVTZ
Optimized geometry with CFour
$end

$molecule
0 1
F      -1.1529023119     0.2247766372     0.0000000000
C1      1.1793501171     0.1997294858     0.0000000000
C2      0.0163188564    -0.4355681094     0.0000000000
H      -0.1189530186    -1.5078996853     0.0000000000
H       1.2308254859     1.2785611362     0.0000000000
H       2.0902344982    -0.3786194440     0.0000000000
$end

$rem
!    input_bohr = true
    jobtype = sp
    method = eom-ccsd
    cvs_ee_singlets    [15,10]
    basis = aug-cc-pVTZ
    n_frozen_core = 1
    cc_trans_prop = true
   EOM_DAVIDSON_MAXVECTORS = 1000
   eom_preconv_singles = true
   eom_shift = 25400
   eom_davidson_convergence = 4   !as we discussed, this is good for core
   use_libqints = 1   !use new int library (will be def in trunk)
   thresh = 14   !this already should be default, but just in case
   scf_convergence = 12   !v. tight scf convergence, to reduce noise
   cc_convergence = 12   !tight CC, for the same reason
   basis_lin_dep_thresh = 8  !default is 6, use smaller, just in case
   cc_memory = 100000
   EOM_DAVIDSON_MAX_ITER 200
$end
--------------------------------------------------------------

             Standard Nuclear Orientation (Angstroms)
    I     Atom           X                Y                Z
 ----------------------------------------------------------------
    1      F       1.1529023119     0.2247766372    -0.0000000000
    2      C      -1.1793501171     0.1997294858    -0.0000000000
    3      C      -0.0163188564    -0.4355681094     0.0000000000
    4      H       0.1189530185    -1.5078996853     0.0000000000
    5      H      -1.2308254859     1.2785611362    -0.0000000000
    6      H      -2.0902344982    -0.3786194440     0.0000000000
 ----------------------------------------------------------------

   18    -176.9563107082      5.56e-13  Convergence criterion met
 CCSD total energy           = -177.59742494
 EOMEE transition 1/A'
 Total energy = -152.21189677 a.u.  Excitation energy = 690.7754 eV.
 EOMEE transition 2/A'
 Total energy = -152.17241690 a.u.  Excitation energy = 691.8497 eV.
 EOMEE transition 3/A'
 Total energy = -152.15829627 a.u.  Excitation energy = 692.2339 eV.
 EOMEE transition 4/A'
 Total energy = -152.14257683 a.u.  Excitation energy = 692.6616 eV.
 EOMEE transition 5/A'
 Total energy = -152.10713159 a.u.  Excitation energy = 693.6262 eV.
 EOMEE transition 6/A'
 Total energy = -152.10073980 a.u.  Excitation energy = 693.8001 eV.
 EOMEE transition 7/A'
 Total energy = -152.08106263 a.u.  Excitation energy = 694.3355 eV.
 EOMEE transition 8/A'
 Total energy = -152.07475829 a.u.  Excitation energy = 694.5071 eV.
 EOMEE transition 9/A'
 Total energy = -152.06313318 a.u.  Excitation energy = 694.8234 eV.
 EOMEE transition 10/A'
 Total energy = -152.04844046 a.u.  Excitation energy = 695.2232 eV.
 EOMEE transition 11/A'
 Total energy = -152.03277057 a.u.  Excitation energy = 695.6496 eV.
 EOMEE transition 12/A'
 Total energy = -152.01665608 a.u.  Excitation energy = 696.0881 eV.
 EOMEE transition 13/A'
 Total energy = -151.98791819 a.u.  Excitation energy = 696.8701 eV.
 EOMEE transition 14/A'
 Total energy = -151.97067964 a.u.  Excitation energy = 697.3392 eV.
 EOMEE transition 15/A'
 Total energy = -151.94864847 a.u.  Excitation energy = 697.9387 eV.
 EOMEE transition 1/A"
 Total energy = -152.21186811 a.u.  Excitation energy = 690.7761 eV.
 EOMEE transition 2/A"
 Total energy = -152.13862808 a.u.  Excitation energy = 692.7691 eV.
 EOMEE transition 3/A"
 Total energy = -152.07646725 a.u.  Excitation energy = 694.4606 eV.
 EOMEE transition 4/A"
 Total energy = -152.05636913 a.u.  Excitation energy = 695.0075 eV.
 EOMEE transition 5/A"
 Total energy = -151.97163452 a.u.  Excitation energy = 697.3132 eV.
 EOMEE transition 6/A"
 Total energy = -151.94669303 a.u.  Excitation energy = 697.9919 eV.
 EOMEE transition 7/A"
 Total energy = -151.89419670 a.u.  Excitation energy = 699.4204 eV.
 EOMEE transition 8/A"
 Total energy = -151.86541945 a.u.  Excitation energy = 700.2035 eV.
 EOMEE transition 9/A"
 Total energy = -151.83923969 a.u.  Excitation energy = 700.9159 eV.
 EOMEE transition 10/A"
 Total energy = -151.80024709 a.u.  Excitation energy = 701.9769 eV.

             Orbital Energies (a.u.) and Symmetries
 --------------------------------------------------------------

 Alpha MOs, Restricted
 -- Occupied --
-26.311 -11.329 -11.237  -1.627  -1.052  -0.838  -0.739  -0.691
  1 A'    2 A'    3 A'    4 A'    5 A'    6 A'    7 A'    1 A"
 -0.684  -0.589  -0.560  -0.385
  8 A'    9 A'   10 A'    2 A"

 Beta MOs, Restricted
 -- Occupied --
-26.311 -11.329 -11.237  -1.627  -1.052  -0.838  -0.739  -0.691
  1 A'    2 A'    3 A'    4 A'    5 A'    6 A'    7 A'    1 A"
 -0.684  -0.589  -0.560  -0.385
  8 A'    9 A'   10 A'    2 A"

          Ground-State Mulliken Net Atomic Charges

     Atom                 Charge (a.u.)
  ----------------------------------------
      1 F                    -0.400006
      2 C                    -1.034089
      3 C                    -0.184387
      4 H                     0.733406
      5 H                     0.466920
      6 H                     0.418156
  ----------------------------------------
  Sum of atomic charges =     0.000000

                    Cartesian Multipole Moments
 -----------------------------------------------------------------
    Charge (ESU x 10^10)
                 0.0000
    Dipole Moment (Debye)
         X      -1.3467      Y      -0.8360      Z       0.0000
       Tot       1.5851
    Quadrupole Moments (Debye-Ang)
        XX     -17.8344     XY      -0.9542     YY     -15.3428
        XZ       0.0000     YZ       0.0000     ZZ     -19.3724

 Total job time:  2812.45s(wall), 20412.79s(cpu)
        *  Thank you very much for using Q-Chem.  Have a nice day.  *
