 Q-Chem 5.1, Q-Chem, Inc., Pleasanton, CA (2018)
 Q-Chem 5.1.0 for Intel X86 EM64T Linux

User input:
--------------------------------------------------------------
$comment
NEXAFS VINYLFLUORIDE / 6-311++G**+Rydberg
Optimized geometry with CFour
$end

$molecule
0 1
C
Gh   1 nc2
F    2 fn3         1 fnc3
C    3 cf4         2 cfn4          1 dih4
H    4 hc5         1 hcc5          2 dih5
H    1 hc6         4 hcc6          3 dih6
H    1 hc7         4 hcc7          3 dih7

nc2         1.196145
fn3         1.174610
fnc3        159.355
cf4         1.342808
cfn4         18.424
dih4        180.000
hc5         1.080830
hcc5        125.835
dih5        180.000
hc6         1.080059
hcc6        121.377
dih6          0.000
hc7         1.078980
hcc7        118.942
dih7        180.000
$end

$rem
!    input_bohr = true
    jobtype = sp
    method = eom-ccsd
    cvs_ee_singlets    [30,15]
    basis = gen
    n_frozen_core = 1
    cc_trans_prop = true
   EOM_DAVIDSON_MAXVECTORS = 1000
   eom_preconv_singles = true
   eom_shift = 25400
   eom_davidson_convergence = 4   !as we discussed, this is good for core
   use_libqints = 1   !use new int library (will be def in trunk)
   thresh = 14   !this already should be default, but just in case
   scf_convergence = 12   !v. tight scf convergence, to reduce noise
   cc_convergence = 12   !tight CC, for the same reason
   basis_lin_dep_thresh = 8  !default is 6, use smaller, just in case
   cc_memory = 100000
   EOM_DAVIDSON_MAX_ITER 200
$end

$basis
C    0
S    6    1.000000
   4.56324000E+03    1.96665000E-03
   6.82024000E+02    1.52306000E-02
   1.54973000E+02    7.61269000E-02
   4.44553000E+01    2.60801000E-01
   1.30290000E+01    6.16462000E-01
   1.82773000E+00    2.21006000E-01
SP   3    1.000000
   2.09642000E+01    1.14660000E-01   4.02487000E-02
   4.80331000E+00    9.19999000E-01   2.37594000E-01
   1.45933000E+00   -3.03068000E-03   8.15854000E-01
SP   1    1.000000
   4.83456000E-01    1.00000000E+00   1.00000000E+00
SP   1    1.000000
   1.45585000E-01    1.00000000E+00   1.00000000E+00
SP   1    1.000000
   4.38000000E-02    1.00000000E+00   1.00000000E+00
D    1    1.000000
   6.26000000E-01    1.00000000E+00
****
Gh   0
S   1   1.00
        0.0112533427        1.0000000000
S   1   1.00
        0.0058583805        1.0000000000
S   1   1.00
        0.0033459739        1.0000000000
S   1   1.00
        0.0020484225        1.0000000000
S   1   1.00
        0.0013236424        1.0000000000
P   1   1.00
        0.0192542060        1.0000000000
P   1   1.00
        0.0099882106        1.0000000000
P   1   1.00
        0.0056893607        1.0000000000
P   1   1.00
        0.0034756797        1.0000000000
P   1   1.00
        0.0022420590        1.0000000000
D   1   1.00
        0.0274456919        1.0000000000
D   1   1.00
        0.0142043987        1.0000000000
D   1   1.00
        0.0080765930        1.0000000000
D   1   1.00
        0.0049271863        1.0000000000
D   1   1.00
        0.0031748110        1.0000000000
****
F    0
S    6    1.000000
   1.14271000E+04    1.80093000E-03
   1.72235000E+03    1.37419000E-02
   3.95746000E+02    6.81334000E-02
   1.15139000E+02    2.33325000E-01
   3.36026000E+01    5.89086000E-01
   4.91901000E+00    2.99505000E-01
SP   3    1.000000
   5.54441000E+01    1.14536000E-01   3.54609000E-02
   1.26323000E+01    9.20512000E-01   2.37451000E-01
   3.71756000E+00   -3.37804000E-03   8.20458000E-01
SP   1    1.000000
   1.16545000E+00    1.00000000E+00   1.00000000E+00
SP   1    1.000000
   3.21892000E-01    1.00000000E+00   1.00000000E+00
SP   1    1.000000
   1.07600000E-01    1.00000000E+00   1.00000000E+00
D    1    1.000000
   1.75000000E+00    1.00000000E+00
****
C    0
S    6    1.000000
   4.56324000E+03    1.96665000E-03
   6.82024000E+02    1.52306000E-02
   1.54973000E+02    7.61269000E-02
   4.44553000E+01    2.60801000E-01
   1.30290000E+01    6.16462000E-01
   1.82773000E+00    2.21006000E-01
SP   3    1.000000
   2.09642000E+01    1.14660000E-01   4.02487000E-02
   4.80331000E+00    9.19999000E-01   2.37594000E-01
   1.45933000E+00   -3.03068000E-03   8.15854000E-01
SP   1    1.000000
   4.83456000E-01    1.00000000E+00   1.00000000E+00
SP   1    1.000000
   1.45585000E-01    1.00000000E+00   1.00000000E+00
SP   1    1.000000
   4.38000000E-02    1.00000000E+00   1.00000000E+00
D    1    1.000000
   6.26000000E-01    1.00000000E+00
****
H    0
S    3    1.000000
   3.38650000E+01    2.54938000E-02
   5.09479000E+00    1.90373000E-01
   1.15879000E+00    8.52161000E-01
S    1    1.000000
   3.25840000E-01    1.00000000E+00
S    1    1.000000
   1.02741000E-01    1.00000000E+00
S    1    1.000000
   3.60000000E-02    1.00000000E+00
P    1    1.000000
   7.50000000E-01    1.00000000E+00
****
H    0
S    3    1.000000
   3.38650000E+01    2.54938000E-02
   5.09479000E+00    1.90373000E-01
   1.15879000E+00    8.52161000E-01
S    1    1.000000
   3.25840000E-01    1.00000000E+00
S    1    1.000000
   1.02741000E-01    1.00000000E+00
S    1    1.000000
   3.60000000E-02    1.00000000E+00
P    1    1.000000
   7.50000000E-01    1.00000000E+00
****
$end
--------------------------------------------------------------

             Standard Nuclear Orientation (Angstroms)
    I     Atom           X                Y                Z
 ----------------------------------------------------------------
    1      C       1.1793501531     0.1997297036     0.0000000000
    2      GH     -0.0000008629    -0.0000052260     0.0000000000
    3      F      -1.1529022759     0.2247768549    -0.0000000000
    4      C       0.0163188924    -0.4355678917     0.0000000000
    5      H      -0.1189529826    -1.5078994676    -0.0000000000
    6      H       1.2308255218     1.2785613540    -0.0000000000
    7      H       2.0902345342    -0.3786192262     0.0000000000
 ----------------------------------------------------------------

   25    -176.9370009782      5.49e-13  Convergence criterion met
 CCSD total energy           = -177.48743315
 EOMEE transition 1/A'
 Total energy = -152.08853648 a.u.  Excitation energy = 691.1391 eV.
 EOMEE transition 2/A'
 Total energy = -152.05081561 a.u.  Excitation energy = 692.1656 eV.
 EOMEE transition 3/A'
 Total energy = -152.03893144 a.u.  Excitation energy = 692.4889 eV.
 EOMEE transition 4/A'
 Total energy = -152.02671060 a.u.  Excitation energy = 692.8215 eV.
 EOMEE transition 5/A'
 Total energy = -152.00230271 a.u.  Excitation energy = 693.4857 eV.
 EOMEE transition 6/A'
 Total energy = -152.00036069 a.u.  Excitation energy = 693.5385 eV.
 EOMEE transition 7/A'
 Total energy = -151.99793798 a.u.  Excitation energy = 693.6044 eV.
 EOMEE transition 8/A'
 Total energy = -151.99410417 a.u.  Excitation energy = 693.7088 eV.
 EOMEE transition 9/A'
 Total energy = -151.98927898 a.u.  Excitation energy = 693.8401 eV.
 EOMEE transition 10/A'
 Total energy = -151.98508499 a.u.  Excitation energy = 693.9542 eV.
 EOMEE transition 11/A'
 Total energy = -151.97631718 a.u.  Excitation energy = 694.1928 eV.
 EOMEE transition 12/A'
 Total energy = -151.97563582 a.u.  Excitation energy = 694.2113 eV.
 EOMEE transition 13/A'
 Total energy = -151.97460453 a.u.  Excitation energy = 694.2394 eV.
 EOMEE transition 14/A'
 EOMEE transition 15/A'
 EOMEE transition 16/A'
 EOMEE transition 17/A'
 EOMEE transition 18/A'
 EOMEE transition 19/A'
 EOMEE transition 20/A'
 EOMEE transition 21/A'
 EOMEE transition 22/A'
 EOMEE transition 23/A'
 EOMEE transition 24/A'
 EOMEE transition 25/A'
 EOMEE transition 26/A'
 EOMEE transition 27/A'
 EOMEE transition 28/A'
 EOMEE transition 29/A'
 EOMEE transition 30/A'
 EOMEE transition 1/A"
 Total energy = -152.08387745 a.u.  Excitation energy = 691.2659 eV.
 EOMEE transition 2/A"
 Total energy = -152.03120764 a.u.  Excitation energy = 692.6991 eV.
 EOMEE transition 3/A"
 Total energy = -151.99820347 a.u.  Excitation energy = 693.5972 eV.
 EOMEE transition 4/A"
 Total energy = -151.99257981 a.u.  Excitation energy = 693.7502 eV.
 EOMEE transition 5/A"
 Total energy = -151.98688658 a.u.  Excitation energy = 693.9052 eV.
 EOMEE transition 6/A"
 Total energy = -151.97471241 a.u.  Excitation energy = 694.2364 eV.
 EOMEE transition 7/A"
 Total energy = -151.97203461 a.u.  Excitation energy = 694.3093 eV.
 EOMEE transition 8/A"
 Total energy = -151.96956115 a.u.  Excitation energy = 694.3766 eV.
 EOMEE transition 9/A"
 Total energy = -151.96166988 a.u.  Excitation energy = 694.5913 eV.
 EOMEE transition 10/A"
 Total energy = -151.95914962 a.u.  Excitation energy = 694.6599 eV.
 EOMEE transition 11/A"
 Total energy = -151.95678771 a.u.  Excitation energy = 694.7242 eV.
 EOMEE transition 12/A"
 Total energy = -151.94055217 a.u.  Excitation energy = 695.1660 eV.
 EOMEE transition 13/A"
 Total energy = -151.93490550 a.u.  Excitation energy = 695.3196 eV.
 EOMEE transition 14/A"
 Total energy = -151.92983405 a.u.  Excitation energy = 695.4576 eV.
 EOMEE transition 15/A"
 Total energy = -151.89682001 a.u.  Excitation energy = 696.3560 eV.

             Orbital Energies (a.u.) and Symmetries
 --------------------------------------------------------------

 Alpha MOs, Restricted
 -- Occupied --
-26.310 -11.332 -11.240  -1.628  -1.055  -0.840  -0.740  -0.690
  1 A'    2 A'    3 A'    4 A'    5 A'    6 A'    7 A'    1 A"
 -0.686  -0.591  -0.562  -0.386
  8 A'    9 A'   10 A'    2 A"

 Beta MOs, Restricted
 -- Occupied --
-26.310 -11.332 -11.240  -1.628  -1.055  -0.840  -0.740  -0.690
  1 A'    2 A'    3 A'    4 A'    5 A'    6 A'    7 A'    1 A"
 -0.686  -0.591  -0.562  -0.386
  8 A'    9 A'   10 A'    2 A"

          Ground-State Mulliken Net Atomic Charges

     Atom                 Charge (a.u.)
  ----------------------------------------
      1 C                    -0.245028
      2 GH                    0.027262
      3 F                    -0.123103
      4 C                    -0.019896
      5 H                     0.148834
      6 H                     0.111171
      7 H                     0.100761
  ----------------------------------------
  Sum of atomic charges =     0.000000

                    Cartesian Multipole Moments
 -----------------------------------------------------------------
    Charge (ESU x 10^10)
                -0.0000
    Dipole Moment (Debye)
         X       1.4873      Y      -0.9279      Z       0.0000
       Tot       1.7530
    Quadrupole Moments (Debye-Ang)
        XX     -18.0200     XY       0.9639     YY     -15.3308
        XZ      -0.0000     YZ      -0.0000     ZZ     -19.4790

 Total job time:  4555.72s(wall), 22305.21s(cpu)
        *  Thank you very much for using Q-Chem.  Have a nice day.  *
