 Q-Chem 5.1, Q-Chem, Inc., Pleasanton, CA (2018)
 Q-Chem 5.1.0 for Intel X86 EM64T Linux

User input:
--------------------------------------------------------------
$comment
NEXAFS VINYLFLUORIDE / 6-311++G**
Optimized geometry with CFour
$end

$molecule
0 1
F      -1.1529023119     0.2247766372     0.0000000000
C1      1.1793501171     0.1997294858     0.0000000000
C2      0.0163188564    -0.4355681094     0.0000000000
H      -0.1189530186    -1.5078996853     0.0000000000
H       1.2308254859     1.2785611362     0.0000000000
H       2.0902344982    -0.3786194440     0.0000000000
$end

$rem
!    input_bohr = true
    jobtype = sp
    method = eom-ccsd
    cvs_ee_singlets    [20,13]
    basis = 6-311++G**
    n_frozen_core = fc
    cc_trans_prop = true
   EOM_DAVIDSON_MAXVECTORS = 1000
   eom_preconv_singles = true
   eom_shift = 10470
   eom_davidson_convergence = 4   !as we discussed, this is good for core
   use_libqints = 1   !use new int library (will be def in trunk)
   thresh = 14   !this already should be default, but just in case
   scf_convergence = 13   !v. tight scf convergence, to reduce noise
   cc_convergence = 12   !tight CC, for the same reason
   basis_lin_dep_thresh = 8  !default is 6, use smaller, just in case
   cc_memory = 100000
   EOM_DAVIDSON_MAX_ITER 200
$end
--------------------------------------------------------------

             Standard Nuclear Orientation (Angstroms)
    I     Atom           X                Y                Z
 ----------------------------------------------------------------
    1      F       1.1529023119     0.2247766372    -0.0000000000
    2      C      -1.1793501171     0.1997294858    -0.0000000000
    3      C      -0.0163188564    -0.4355681094     0.0000000000
    4      H       0.1189530185    -1.5078996853     0.0000000000
    5      H      -1.2308254859     1.2785611362    -0.0000000000
    6      H      -2.0902344982    -0.3786194440     0.0000000000
 ----------------------------------------------------------------

   20    -176.9366625402      4.08e-14  Convergence criterion met
 CCSD total energy           = -177.44759619
 EOMEE transition 1/A'
 Total energy = -166.85700940 a.u.  Excitation energy = 288.1845 eV.
 EOMEE transition 2/A'
 Total energy = -166.83403562 a.u.  Excitation energy = 288.8097 eV.
 EOMEE transition 3/A'
 Total energy = -166.80802425 a.u.  Excitation energy = 289.5175 eV.
 EOMEE transition 4/A'
 Total energy = -166.79480563 a.u.  Excitation energy = 289.8772 eV.
 EOMEE transition 5/A'
 Total energy = -166.76698182 a.u.  Excitation energy = 290.6343 eV.
 EOMEE transition 6/A'
 Total energy = -166.76668125 a.u.  Excitation energy = 290.6425 eV.
 EOMEE transition 7/A'
 Total energy = -166.74868537 a.u.  Excitation energy = 291.1322 eV.
 EOMEE transition 8/A'
 Total energy = -166.73597093 a.u.  Excitation energy = 291.4781 eV.
 EOMEE transition 9/A'
 Total energy = -166.72924366 a.u.  Excitation energy = 291.6612 eV.
 EOMEE transition 10/A'
 Total energy = -166.72312585 a.u.  Excitation energy = 291.8277 eV.
 EOMEE transition 11/A'
 Total energy = -166.71437060 a.u.  Excitation energy = 292.0659 eV.
 EOMEE transition 12/A'
 Total energy = -166.70438400 a.u.  Excitation energy = 292.3377 eV.
 EOMEE transition 13/A'
 Total energy = -166.69656771 a.u.  Excitation energy = 292.5504 eV.
 EOMEE transition 14/A'
 EOMEE transition 15/A'
 EOMEE transition 16/A'
 EOMEE transition 17/A'
 EOMEE transition 18/A'
 EOMEE transition 19/A'
 Total energy = -166.63853157 a.u.  Excitation energy = 294.1296 eV.
 EOMEE transition 20/A'
 Total energy = -166.62638821 a.u.  Excitation energy = 294.4600 eV.
 EOMEE transition 1/A"
 Total energy = -166.94069142 a.u.  Excitation energy = 285.9074 eV.
 EOMEE transition 2/A"
 Total energy = -166.86249324 a.u.  Excitation energy = 288.0353 eV.
 EOMEE transition 3/A"
 Total energy = -166.79583960 a.u.  Excitation energy = 289.8490 eV.
 EOMEE transition 4/A"
 Total energy = -166.73431375 a.u.  Excitation energy = 291.5232 eV.
 EOMEE transition 5/A"
 Total energy = -166.69934387 a.u.  Excitation energy = 292.4748 eV.
 EOMEE transition 6/A"
 Total energy = -166.63963056 a.u.  Excitation energy = 294.0997 eV.
 EOMEE transition 7/A"
 Total energy = -166.54401970 a.u.  Excitation energy = 296.7014 eV.
 EOMEE transition 8/A"
 Total energy = -166.47162599 a.u.  Excitation energy = 298.6713 eV.
 EOMEE transition 9/A"
 Total energy = -166.37996143 a.u.  Excitation energy = 301.1657 eV.
 EOMEE transition 10/A"
 Total energy = -166.32913852 a.u.  Excitation energy = 302.5486 eV.
 EOMEE transition 11/A"
 Total energy = -166.30842152 a.u.  Excitation energy = 303.1124 eV.
 EOMEE transition 12/A"
 Total energy = -166.29533114 a.u.  Excitation energy = 303.4686 eV.
 EOMEE transition 13/A"
 Total energy = -166.28010214 a.u.  Excitation energy = 303.8830 eV.

             Orbital Energies (a.u.) and Symmetries
 --------------------------------------------------------------

 Alpha MOs, Restricted
 -- Occupied --
-26.310 -11.332 -11.240  -1.629  -1.055  -0.840  -0.740  -0.691
  1 A'    2 A'    3 A'    4 A'    5 A'    6 A'    7 A'    1 A"
 -0.686  -0.591  -0.562  -0.386
  8 A'    9 A'   10 A'    2 A"

 Beta MOs, Restricted
 -- Occupied --
-26.310 -11.332 -11.240  -1.629  -1.055  -0.840  -0.740  -0.691
  1 A'    2 A'    3 A'    4 A'    5 A'    6 A'    7 A'    1 A"
 -0.686  -0.591  -0.562  -0.386
  8 A'    9 A'   10 A'    2 A"

          Ground-State Mulliken Net Atomic Charges

     Atom                 Charge (a.u.)
  ----------------------------------------
      1 F                    -0.161411
      2 C                    -0.250461
      3 C                    -0.020824
      4 H                     0.169571
      5 H                     0.148351
      6 H                     0.114774
  ----------------------------------------
  Sum of atomic charges =    -0.000000

                    Cartesian Multipole Moments
 -----------------------------------------------------------------
    Charge (ESU x 10^10)
                -0.0000
    Dipole Moment (Debye)
         X      -1.4919      Y      -0.9315      Z       0.0000
       Tot       1.7588
    Quadrupole Moments (Debye-Ang)
        XX     -18.0169     XY      -0.9545     YY     -15.3190
        XZ       0.0000     YZ      -0.0000     ZZ     -19.4634

 Total job time:  1077.21s(wall), 3798.75s(cpu)
        *  Thank you very much for using Q-Chem.  Have a nice day.  *
