 Q-Chem 5.1, Q-Chem, Inc., Pleasanton, CA (2018)
 Q-Chem 5.1.0 for Intel X86 EM64T Linux

User input:
--------------------------------------------------------------
$comment
NEXAFS VINYLFLUORIDE / aug-cc-pvtz
$end

$molecule
0 1
C       1.1826448394     0.0548061476     0.0000000000
F      -1.1854318948     0.1635668874     0.0000000000
C       0.0616065814    -0.3344575735     0.0000000000
H       0.0709590846    -1.4152471088     0.0000000000
H       1.0359692299     1.5267000199     0.0000000000
H       2.1092745806    -0.0006549534     0.0000000000
$end

$rem
!    input_bohr = true
    jobtype = sp
    method = eom-ccsd
    cvs_ee_singlets    [5,5]
    basis = aug-cc-pvtz
    n_frozen_core = fc
    cc_trans_prop = true
    eom_preconv_singles = true
    eom_davidson_convergence = 3
    eom_davidson_threshold = 00103
$end

--------------------------------------------------------------

             Standard Nuclear Orientation (Angstroms)
    I     Atom           X                Y                Z
 ----------------------------------------------------------------
    1      C       1.1821106307     0.0587620256    -0.0000000000
    2      F      -1.1859658446     0.1675284028    -0.0000000000
    3      C       0.0610714460    -0.3304990268     0.0000000000
    4      H       0.0704213763    -1.4112885843     0.0000000000
    5      H       1.0354385251     1.5306562471    -0.0000000000
    6      H       2.1087402398     0.0032987187    -0.0000000000
 ----------------------------------------------------------------

   12    -176.8211453353      9.50e-09  Convergence criterion met
 CCSD total energy           = -177.43066610
 EOMEE transition 1/A'
 Total energy = -166.93392524 a.u.  Excitation energy = 285.6308 eV.
 EOMEE transition 2/A'
 Total energy = -166.83841150 a.u.  Excitation energy = 288.2299 eV.
 EOMEE transition 3/A'
 Total energy = -166.80911151 a.u.  Excitation energy = 289.0272 eV.
 EOMEE transition 4/A'
 Total energy = -166.80649539 a.u.  Excitation energy = 289.0984 eV.
 EOMEE transition 5/A'
 Total energy = -166.79942636 a.u.  Excitation energy = 289.2907 eV.
 EOMEE transition 1/A"
 Total energy = -166.90122815 a.u.  Excitation energy = 286.5206 eV.
 EOMEE transition 2/A"
 Total energy = -166.83805502 a.u.  Excitation energy = 288.2396 eV.
 EOMEE transition 3/A"
 Total energy = -166.79888772 a.u.  Excitation energy = 289.3054 eV.
 EOMEE transition 4/A"
 Total energy = -166.73941496 a.u.  Excitation energy = 290.9237 eV.
 EOMEE transition 5/A"
 Total energy = -166.70984014 a.u.  Excitation energy = 291.7285 eV.

             Orbital Energies (a.u.) and Symmetries
 --------------------------------------------------------------

 Alpha MOs, Restricted
 -- Occupied --
-26.326 -11.322 -11.248  -1.637  -1.110  -0.846  -0.762  -0.742
  1 A'    2 A'    3 A'    4 A'    5 A'    6 A'    7 A'    8 A'
 -0.703  -0.606  -0.440  -0.426
  1 A"    9 A'    2 A"   10 A'

 Beta MOs, Restricted
 -- Occupied --
-26.326 -11.322 -11.248  -1.637  -1.110  -0.846  -0.762  -0.742
  1 A'    2 A'    3 A'    4 A'    5 A'    6 A'    7 A'    8 A'
 -0.703  -0.606  -0.440  -0.426
  1 A"    9 A'    2 A"   10 A'

          Ground-State Mulliken Net Atomic Charges

     Atom                 Charge (a.u.)
  ----------------------------------------
      1 C                    -0.642232
      2 F                    -0.345998
      3 C                    -0.128789
      4 H                     0.486302
      5 H                     0.066973
      6 H                     0.563744
  ----------------------------------------
  Sum of atomic charges =     0.000000

                    Cartesian Multipole Moments
 -----------------------------------------------------------------
    Charge (ESU x 10^10)
                 0.0000
    Dipole Moment (Debye)
         X       1.6295      Y      -1.0576      Z       0.0000
       Tot       1.9427
    Quadrupole Moments (Debye-Ang)
        XX     -16.9939     XY      -0.1882     YY     -17.4581
        XZ       0.0000     YZ      -0.0000     ZZ     -18.9118

 Total job time:  13695.05s(wall), 7622.32s(cpu)
        *  Thank you very much for using Q-Chem.  Have a nice day.  *
