 Q-Chem 5.1, Q-Chem, Inc., Pleasanton, CA (2018)
 Q-Chem 5.1.0 for Intel X86 EM64T Linux

User input:
--------------------------------------------------------------
$comment
NEXAFS VINYLFLUORIDE / aug-cc-pvtz
$end

$molecule
0 1
C       1.1793501531     0.1997297036     0.0000000000
F      -1.1529022759     0.2247768549     0.0000000000
C       0.0163188924    -0.4355678917     0.0000000000
H      -0.1189529826    -1.5078994676     0.0000000000
H       1.2308255218     1.2785613540     0.0000000000
H       2.0902345342    -0.3786192262     0.0000000000
$end

$rem
!    input_bohr = true
    jobtype = sp
    method = eom-ccsd
    cvs_ee_singlets    [5,5]
    basis = aug-cc-pvtz
    print_general_basis = true
    n_frozen_core = fc
    cc_trans_prop = true
    eom_preconv_singles = true
    eom_davidson_convergence = 4
    eom_davidson_threshold = 00104
state_analysis = true
molden_format  = true
nto_pairs      = 4
pop_mulliken   = true
$end

--------------------------------------------------------------

             Standard Nuclear Orientation (Angstroms)
    I     Atom           X                Y                Z
 ----------------------------------------------------------------
    1      C       1.1793501171     0.1997294858    -0.0000000000
    2      F      -1.1529023119     0.2247766372    -0.0000000000
    3      C       0.0163188564    -0.4355681094     0.0000000000
    4      H      -0.1189530186    -1.5078996853     0.0000000000
    5      H       1.2308254859     1.2785611362    -0.0000000000
    6      H       2.0902344982    -0.3786194440     0.0000000000
 ----------------------------------------------------------------

   13    -176.9563107095      2.05e-09  Convergence criterion met
 CCSD total energy           = -177.56097744
 EOMEE transition 1/A'
 Total energy = -166.98462943 a.u.  Excitation energy = 287.7971 eV.
 EOMEE transition 2/A'
 Total energy = -166.96238795 a.u.  Excitation energy = 288.4023 eV.
 EOMEE transition 3/A'
 Total energy = -166.93915147 a.u.  Excitation energy = 289.0346 eV.
 EOMEE transition 4/A'
 Total energy = -166.92688299 a.u.  Excitation energy = 289.3684 eV.
 EOMEE transition 5/A'
 Total energy = -166.90359886 a.u.  Excitation energy = 290.0020 eV.
 Excited state properties for  CVS-EOMEE-CCSD transition 1/A'
 Excited state properties for  CVS-EOMEE-CCSD transition 2/A'
 Excited state properties for  CVS-EOMEE-CCSD transition 3/A'
 Excited state properties for  CVS-EOMEE-CCSD transition 4/A'
 Excited state properties for  CVS-EOMEE-CCSD transition 5/A'
 EOMEE transition 1/A"
 Total energy = -167.07128618 a.u.  Excitation energy = 285.4390 eV.
 EOMEE transition 2/A"
 Total energy = -166.99361758 a.u.  Excitation energy = 287.5525 eV.
 EOMEE transition 3/A"
 Total energy = -166.93238148 a.u.  Excitation energy = 289.2188 eV.
 EOMEE transition 4/A"
 Total energy = -166.87871788 a.u.  Excitation energy = 290.6791 eV.
 EOMEE transition 5/A"
 Total energy = -166.83634633 a.u.  Excitation energy = 291.8321 eV.
 Excited state properties for  CVS-EOMEE-CCSD transition 1/A"
 Excited state properties for  CVS-EOMEE-CCSD transition 2/A"
 Excited state properties for  CVS-EOMEE-CCSD transition 3/A"
 Excited state properties for  CVS-EOMEE-CCSD transition 4/A"
 Excited state properties for  CVS-EOMEE-CCSD transition 5/A"

             Orbital Energies (a.u.) and Symmetries
 --------------------------------------------------------------

 Alpha MOs, Restricted
 -- Occupied --
-26.311 -11.329 -11.237  -1.627  -1.052  -0.838  -0.739  -0.691
  1 A'    2 A'    3 A'    4 A'    5 A'    6 A'    7 A'    1 A"
 -0.684  -0.589  -0.560  -0.385
  8 A'    9 A'   10 A'    2 A"

 Beta MOs, Restricted
 -- Occupied --
-26.311 -11.329 -11.237  -1.627  -1.052  -0.838  -0.739  -0.691
  1 A'    2 A'    3 A'    4 A'    5 A'    6 A'    7 A'    1 A"
 -0.684  -0.589  -0.560  -0.385
  8 A'    9 A'   10 A'    2 A"

          Ground-State Mulliken Net Atomic Charges

     Atom                 Charge (a.u.)
  ----------------------------------------
      1 C                    -1.034089
      2 F                    -0.400006
      3 C                    -0.184387
      4 H                     0.733406
      5 H                     0.466920
      6 H                     0.418156
  ----------------------------------------
  Sum of atomic charges =     0.000000

                    Cartesian Multipole Moments
 -----------------------------------------------------------------
    Charge (ESU x 10^10)
                 0.0000
    Dipole Moment (Debye)
         X       1.3467      Y      -0.8360      Z       0.0000
       Tot       1.5851
    Quadrupole Moments (Debye-Ang)
        XX     -17.8344     XY       0.9542     YY     -15.3428
        XZ       0.0000     YZ      -0.0000     ZZ     -19.3724

 Total job time:  15515.97s(wall), 6585.79s(cpu)
        *  Thank you very much for using Q-Chem.  Have a nice day.  *
