 Q-Chem 5.1, Q-Chem, Inc., Pleasanton, CA (2018)
 Q-Chem 5.1.0 for Intel X86 EM64T Linux

User input:
--------------------------------------------------------------
$comment
NEXAFS VINYLFLUORIDE / 6-311++G**
Optimized geometry with CFour
$end

$molecule
0 1
F      -1.1529023119     0.2247766372     0.0000000000
C1      1.1793501171     0.1997294858     0.0000000000
C2      0.0163188564    -0.4355681094     0.0000000000
H      -0.1189530186    -1.5078996853     0.0000000000
H       1.2308254859     1.2785611362     0.0000000000
H       2.0902344982    -0.3786194440     0.0000000000
$end

$rem
!    input_bohr = true
    jobtype = sp
    method = eom-ccsd
    cvs_ee_singlets    [20,13]
    basis = 6-311++G**
    n_frozen_core = 1
    cc_trans_prop = true
   EOM_DAVIDSON_MAXVECTORS = 1000
   eom_preconv_singles = true
!   eom_shift = 10470
   eom_davidson_convergence = 4   !as we discussed, this is good for core
   use_libqints = 1   !use new int library (will be def in trunk)
   thresh = 14   !this already should be default, but just in case
   scf_convergence = 13   !v. tight scf convergence, to reduce noise
   cc_convergence = 12   !tight CC, for the same reason
   basis_lin_dep_thresh = 8  !default is 6, use smaller, just in case
   cc_memory = 100000
   EOM_DAVIDSON_MAX_ITER 200
$end
--------------------------------------------------------------

             Standard Nuclear Orientation (Angstroms)
    I     Atom           X                Y                Z
 ----------------------------------------------------------------
    1      F       1.1529023119     0.2247766372    -0.0000000000
    2      C      -1.1793501171     0.1997294858    -0.0000000000
    3      C      -0.0163188564    -0.4355681094     0.0000000000
    4      H       0.1189530185    -1.5078996853     0.0000000000
    5      H      -1.2308254859     1.2785611362    -0.0000000000
    6      H      -2.0902344982    -0.3786194440     0.0000000000
 ----------------------------------------------------------------

   20    -176.9366625402      4.06e-14  Convergence criterion met
 CCSD total energy           = -177.48646958
 EOMEE transition 1/A'
 Total energy = -152.08598229 a.u.  Excitation energy = 691.1824 eV.
 EOMEE transition 2/A'
 Total energy = -152.04676354 a.u.  Excitation energy = 692.2496 eV.
 EOMEE transition 3/A'
 Total energy = -152.03005228 a.u.  Excitation energy = 692.7043 eV.
 EOMEE transition 4/A'
 Total energy = -152.01253875 a.u.  Excitation energy = 693.1809 eV.
 EOMEE transition 5/A'
 Total energy = -151.96925528 a.u.  Excitation energy = 694.3587 eV.
 EOMEE transition 6/A'
 Total energy = -151.95635431 a.u.  Excitation energy = 694.7098 eV.
 EOMEE transition 7/A'
 Total energy = -151.94190534 a.u.  Excitation energy = 695.1029 eV.
 EOMEE transition 8/A'
 Total energy = -151.91914584 a.u.  Excitation energy = 695.7223 eV.
 EOMEE transition 9/A'
 Total energy = -151.89823690 a.u.  Excitation energy = 696.2912 eV.
 EOMEE transition 10/A'
 Total energy = -151.89251098 a.u.  Excitation energy = 696.4470 eV.
 EOMEE transition 11/A'
 Total energy = -151.87201678 a.u.  Excitation energy = 697.0047 eV.
 EOMEE transition 12/A'
 Total energy = -151.84979160 a.u.  Excitation energy = 697.6095 eV.
 EOMEE transition 13/A'
 Total energy = -151.81846387 a.u.  Excitation energy = 698.4620 eV.
 EOMEE transition 14/A'
 EOMEE transition 15/A'
 EOMEE transition 16/A'
 EOMEE transition 17/A'
 EOMEE transition 18/A'
 EOMEE transition 19/A'
 Total energy = -151.55993853 a.u.  Excitation energy = 705.4968 eV.
 EOMEE transition 20/A'
 Total energy = -151.48519472 a.u.  Excitation energy = 707.5307 eV.
 EOMEE transition 1/A"
 Total energy = -152.08250651 a.u.  Excitation energy = 691.2770 eV.
 EOMEE transition 2/A"
 Total energy = -152.00135970 a.u.  Excitation energy = 693.4851 eV.
 EOMEE transition 3/A"
 Total energy = -151.92502132 a.u.  Excitation energy = 695.5624 eV.
 EOMEE transition 4/A"
 Total energy = -151.85313478 a.u.  Excitation energy = 697.5185 eV.
 EOMEE transition 5/A"
 Total energy = -151.52661352 a.u.  Excitation energy = 706.4036 eV.
 EOMEE transition 6/A"
 Total energy = -151.42223564 a.u.  Excitation energy = 709.2439 eV.
 EOMEE transition 7/A"
 Total energy = -151.27461822 a.u.  Excitation energy = 713.2608 eV.
 EOMEE transition 8/A"
 Total energy = -151.23062548 a.u.  Excitation energy = 714.4579 eV.
 EOMEE transition 9/A"
 Total energy = -151.20372311 a.u.  Excitation energy = 715.1899 eV.
 EOMEE transition 10/A"
 Total energy = -151.20031492 a.u.  Excitation energy = 715.2826 eV.
 EOMEE transition 11/A"
 Total energy = -151.16139691 a.u.  Excitation energy = 716.3417 eV.
 EOMEE transition 12/A"
 Total energy = -151.15502628 a.u.  Excitation energy = 716.5150 eV.
 EOMEE transition 13/A"
 Total energy = -151.14255303 a.u.  Excitation energy = 716.8544 eV.

             Orbital Energies (a.u.) and Symmetries
 --------------------------------------------------------------

 Alpha MOs, Restricted
 -- Occupied --
-26.310 -11.332 -11.240  -1.629  -1.055  -0.840  -0.740  -0.691
  1 A'    2 A'    3 A'    4 A'    5 A'    6 A'    7 A'    1 A"
 -0.686  -0.591  -0.562  -0.386
  8 A'    9 A'   10 A'    2 A"

 Beta MOs, Restricted
 -- Occupied --
-26.310 -11.332 -11.240  -1.629  -1.055  -0.840  -0.740  -0.691
  1 A'    2 A'    3 A'    4 A'    5 A'    6 A'    7 A'    1 A"
 -0.686  -0.591  -0.562  -0.386
  8 A'    9 A'   10 A'    2 A"

          Ground-State Mulliken Net Atomic Charges

     Atom                 Charge (a.u.)
  ----------------------------------------
      1 F                    -0.161411
      2 C                    -0.250461
      3 C                    -0.020824
      4 H                     0.169571
      5 H                     0.148351
      6 H                     0.114774
  ----------------------------------------
  Sum of atomic charges =    -0.000000

                    Cartesian Multipole Moments
 -----------------------------------------------------------------
    Charge (ESU x 10^10)
                -0.0000
    Dipole Moment (Debye)
         X      -1.4919      Y      -0.9315      Z       0.0000
       Tot       1.7588
    Quadrupole Moments (Debye-Ang)
        XX     -18.0169     XY      -0.9545     YY     -15.3190
        XZ      -0.0000     YZ      -0.0000     ZZ     -19.4634

 Total job time:  1611.39s(wall), 5030.53s(cpu)
        *  Thank you very much for using Q-Chem.  Have a nice day.  *
