 Q-Chem 5.1, Q-Chem, Inc., Pleasanton, CA (2018)
 Q-Chem 5.1.0 for Intel X86 EM64T Linux

User input:
--------------------------------------------------------------
$comment
NEXAFS VINYLFLUORIDE / aug-cc-pVTZ
Optimized geometry with CFour
$end

$molecule
0 1
F      -1.1529023119     0.2247766372     0.0000000000
C1      1.1793501171     0.1997294858     0.0000000000
C2      0.0163188564    -0.4355681094     0.0000000000
H      -0.1189530186    -1.5078996853     0.0000000000
H       1.2308254859     1.2785611362     0.0000000000
H       2.0902344982    -0.3786194440     0.0000000000
$end

$rem
!    input_bohr = true
    jobtype = sp
    method = eom-ccsd
    cvs_ee_singlets    [20,13]
    basis = aug-cc-pVTZ
    n_frozen_core = fc
    cc_trans_prop = true
   EOM_DAVIDSON_MAXVECTORS = 1000
   eom_preconv_singles = true
   eom_shift = 10470
   eom_davidson_convergence = 4   !as we discussed, this is good for core
   use_libqints = 1   !use new int library (will be def in trunk)
   thresh = 14   !this already should be default, but just in case
!   scf_convergence = 13   !v. tight scf convergence, to reduce noise
!   cc_convergence = 12   !tight CC, for the same reason
   basis_lin_dep_thresh = 8  !default is 6, use smaller, just in case
   cc_memory = 100000
   EOM_DAVIDSON_MAX_ITER 200
$end
--------------------------------------------------------------

             Standard Nuclear Orientation (Angstroms)
    I     Atom           X                Y                Z
 ----------------------------------------------------------------
    1      F       1.1529023119     0.2247766372    -0.0000000000
    2      C      -1.1793501171     0.1997294858    -0.0000000000
    3      C      -0.0163188564    -0.4355681094     0.0000000000
    4      H       0.1189530185    -1.5078996853     0.0000000000
    5      H      -1.2308254859     1.2785611362    -0.0000000000
    6      H      -2.0902344982    -0.3786194440     0.0000000000
 ----------------------------------------------------------------

   13    -176.9563107082      2.05e-09  Convergence criterion met
 CCSD total energy           = -177.56097743
 EOMEE transition 1/A'
 Total energy = -166.98462470 a.u.  Excitation energy = 287.7972 eV.
 EOMEE transition 2/A'
 Total energy = -166.96238186 a.u.  Excitation energy = 288.4025 eV.
 EOMEE transition 3/A'
 Total energy = -166.93917402 a.u.  Excitation energy = 289.0340 eV.
 EOMEE transition 4/A'
 Total energy = -166.92690988 a.u.  Excitation energy = 289.3677 eV.
 EOMEE transition 5/A'
 Total energy = -166.90367093 a.u.  Excitation energy = 290.0001 eV.
 EOMEE transition 6/A'
 Total energy = -166.89519366 a.u.  Excitation energy = 290.2307 eV.
 EOMEE transition 7/A'
 Total energy = -166.88952952 a.u.  Excitation energy = 290.3849 eV.
 EOMEE transition 8/A'
 Total energy = -166.87588248 a.u.  Excitation energy = 290.7562 eV.
 EOMEE transition 9/A'
 Total energy = -166.87296451 a.u.  Excitation energy = 290.8356 eV.
 EOMEE transition 10/A'
 Total energy = -166.86716068 a.u.  Excitation energy = 290.9936 eV.
 EOMEE transition 11/A'
 Total energy = -166.85831111 a.u.  Excitation energy = 291.2344 eV.
 EOMEE transition 12/A'
 Total energy = -166.85397859 a.u.  Excitation energy = 291.3523 eV.
 EOMEE transition 13/A'
 Total energy = -166.84277821 a.u.  Excitation energy = 291.6570 eV.
 EOMEE transition 14/A'
 EOMEE transition 15/A'
 EOMEE transition 16/A'
 EOMEE transition 17/A'
 EOMEE transition 18/A'
 EOMEE transition 19/A'
 Total energy = -166.78202047 a.u.  Excitation energy = 293.3103 eV.
 EOMEE transition 20/A'
 Total energy = -166.78152384 a.u.  Excitation energy = 293.3239 eV.
 EOMEE transition 1/A"
 Total energy = -167.07129664 a.u.  Excitation energy = 285.4387 eV.
 EOMEE transition 2/A"
 Total energy = -166.99358533 a.u.  Excitation energy = 287.5534 eV.
 EOMEE transition 3/A"
 Total energy = -166.93238091 a.u.  Excitation energy = 289.2188 eV.
 EOMEE transition 4/A"
 Total energy = -166.87877026 a.u.  Excitation energy = 290.6776 eV.
 EOMEE transition 5/A"
 Total energy = -166.83638305 a.u.  Excitation energy = 291.8311 eV.
 EOMEE transition 6/A"
 Total energy = -166.83279909 a.u.  Excitation energy = 291.9286 eV.
 EOMEE transition 7/A"
 Total energy = -166.78473064 a.u.  Excitation energy = 293.2366 eV.
 EOMEE transition 8/A"
 Total energy = -166.75161049 a.u.  Excitation energy = 294.1378 eV.
 EOMEE transition 9/A"
 Total energy = -166.74966679 a.u.  Excitation energy = 294.1907 eV.
 EOMEE transition 10/A"
 Total energy = -166.73502336 a.u.  Excitation energy = 294.5892 eV.
 EOMEE transition 11/A"
 Total energy = -166.70033601 a.u.  Excitation energy = 295.5331 eV.
 EOMEE transition 12/A"
 Total energy = -166.68333407 a.u.  Excitation energy = 295.9957 eV.
 EOMEE transition 13/A"
 Total energy = -166.66087557 a.u.  Excitation energy = 296.6069 eV.

             Orbital Energies (a.u.) and Symmetries
 --------------------------------------------------------------

 Alpha MOs, Restricted
 -- Occupied --
-26.311 -11.329 -11.237  -1.627  -1.052  -0.838  -0.739  -0.691
  1 A'    2 A'    3 A'    4 A'    5 A'    6 A'    7 A'    1 A"
 -0.684  -0.589  -0.560  -0.385
  8 A'    9 A'   10 A'    2 A"

 Beta MOs, Restricted
 -- Occupied --
-26.311 -11.329 -11.237  -1.627  -1.052  -0.838  -0.739  -0.691
  1 A'    2 A'    3 A'    4 A'    5 A'    6 A'    7 A'    1 A"
 -0.684  -0.589  -0.560  -0.385
  8 A'    9 A'   10 A'    2 A"

          Ground-State Mulliken Net Atomic Charges

     Atom                 Charge (a.u.)
  ----------------------------------------
      1 F                    -0.400006
      2 C                    -1.034089
      3 C                    -0.184387
      4 H                     0.733406
      5 H                     0.466920
      6 H                     0.418156
  ----------------------------------------
  Sum of atomic charges =    -0.000000

                    Cartesian Multipole Moments
 -----------------------------------------------------------------
    Charge (ESU x 10^10)
                 0.0000
    Dipole Moment (Debye)
         X      -1.3467      Y      -0.8360      Z      -0.0000
       Tot       1.5851
    Quadrupole Moments (Debye-Ang)
        XX     -17.8344     XY      -0.9542     YY     -15.3428
        XZ       0.0000     YZ       0.0000     ZZ     -19.3724

 Total job time:  4357.94s(wall), 29973.38s(cpu)
        *  Thank you very much for using Q-Chem.  Have a nice day.  *
