 Q-Chem 5.1, Q-Chem, Inc., Pleasanton, CA (2018)
 Q-Chem 5.1.0 for Intel X86 EM64T Linux

User input:
--------------------------------------------------------------
$comment
NEXAFS VINYLFLUORIDE
Optimized geometry with CFour
$end

$molecule
0 1
C
Gh   1 nc2
F    2 fn3         1 fnc3
C    3 cf4         2 cfn4          1 dih4
H    4 hc5         1 hcc5          2 dih5
H    1 hc6         4 hcc6          3 dih6
H    1 hc7         4 hcc7          3 dih7

nc2         1.196145
fn3         1.174610
fnc3        159.355
cf4         1.342808
cfn4         18.424
dih4        180.000
hc5         1.080830
hcc5        125.835
dih5        180.000
hc6         1.080059
hcc6        121.377
dih6          0.000
hc7         1.078980
hcc7        118.942
dih7        180.000
$end

$rem
!    input_bohr = true
    jobtype = sp
    method = eom-ccsd
    cvs_ee_singlets    [5,5]
    eom_preconv_singles = true
    eom_davidson_convergence = 4
    eom_davidson_threshold = 00104
    eom_davidson_maxvectors = 1000
    !EOM_GPLMR_MSUBSIZE = 4
    basis = gen
    n_frozen_core = fc
    cc_trans_prop = true
state_analysis = true
molden_format  = true
nto_pairs      = 4
pop_mulliken   = true
$end

$basis
C    0
S    6    1.000000
   4.56324000E+03    1.96665000E-03
   6.82024000E+02    1.52306000E-02
   1.54973000E+02    7.61269000E-02
   4.44553000E+01    2.60801000E-01
   1.30290000E+01    6.16462000E-01
   1.82773000E+00    2.21006000E-01
SP   3    1.000000
   2.09642000E+01    1.14660000E-01   4.02487000E-02
   4.80331000E+00    9.19999000E-01   2.37594000E-01
   1.45933000E+00   -3.03068000E-03   8.15854000E-01
SP   1    1.000000
   4.83456000E-01    1.00000000E+00   1.00000000E+00
SP   1    1.000000
   1.45585000E-01    1.00000000E+00   1.00000000E+00
SP   1    1.000000
   4.38000000E-02    1.00000000E+00   1.00000000E+00
D    1    1.000000
   6.26000000E-01    1.00000000E+00
****
Gh   0
S   1   1.00
        0.0058583805        1.0000000000
S   1   1.00
        0.0033459739        1.0000000000
S   1   1.00
        0.0020484225        1.0000000000
P   1   1.00
        0.0099882106        1.0000000000
P   1   1.00
        0.0056893607        1.0000000000
P   1   1.00
        0.0034756797        1.0000000000
D   1   1.00
        0.0142043987        1.0000000000
D   1   1.00
        0.0080765930        1.0000000000
D   1   1.00
        0.0049271863        1.0000000000
****
F    0
S    6    1.000000
   1.14271000E+04    1.80093000E-03
   1.72235000E+03    1.37419000E-02
   3.95746000E+02    6.81334000E-02
   1.15139000E+02    2.33325000E-01
   3.36026000E+01    5.89086000E-01
   4.91901000E+00    2.99505000E-01
SP   3    1.000000
   5.54441000E+01    1.14536000E-01   3.54609000E-02
   1.26323000E+01    9.20512000E-01   2.37451000E-01
   3.71756000E+00   -3.37804000E-03   8.20458000E-01
SP   1    1.000000
   1.16545000E+00    1.00000000E+00   1.00000000E+00
SP   1    1.000000
   3.21892000E-01    1.00000000E+00   1.00000000E+00
SP   1    1.000000
   1.07600000E-01    1.00000000E+00   1.00000000E+00
D    1    1.000000
   1.75000000E+00    1.00000000E+00
****
C    0
S    6    1.000000
   4.56324000E+03    1.96665000E-03
   6.82024000E+02    1.52306000E-02
   1.54973000E+02    7.61269000E-02
   4.44553000E+01    2.60801000E-01
   1.30290000E+01    6.16462000E-01
   1.82773000E+00    2.21006000E-01
SP   3    1.000000
   2.09642000E+01    1.14660000E-01   4.02487000E-02
   4.80331000E+00    9.19999000E-01   2.37594000E-01
   1.45933000E+00   -3.03068000E-03   8.15854000E-01
SP   1    1.000000
   4.83456000E-01    1.00000000E+00   1.00000000E+00
SP   1    1.000000
   1.45585000E-01    1.00000000E+00   1.00000000E+00
SP   1    1.000000
   4.38000000E-02    1.00000000E+00   1.00000000E+00
D    1    1.000000
   6.26000000E-01    1.00000000E+00
****
H    0
S    3    1.000000
   3.38650000E+01    2.54938000E-02
   5.09479000E+00    1.90373000E-01
   1.15879000E+00    8.52161000E-01
S    1    1.000000
   3.25840000E-01    1.00000000E+00
S    1    1.000000
   1.02741000E-01    1.00000000E+00
S    1    1.000000
   3.60000000E-02    1.00000000E+00
P    1    1.000000
   7.50000000E-01    1.00000000E+00
****
H    0
S    3    1.000000
   3.38650000E+01    2.54938000E-02
   5.09479000E+00    1.90373000E-01
   1.15879000E+00    8.52161000E-01
S    1    1.000000
   3.25840000E-01    1.00000000E+00
S    1    1.000000
   1.02741000E-01    1.00000000E+00
S    1    1.000000
   3.60000000E-02    1.00000000E+00
P    1    1.000000
   7.50000000E-01    1.00000000E+00
****
$end

--------------------------------------------------------------

             Standard Nuclear Orientation (Angstroms)
    I     Atom           X                Y                Z
 ----------------------------------------------------------------
    1      C       1.1793501531     0.1997297036     0.0000000000
    2      GH     -0.0000008629    -0.0000052260     0.0000000000
    3      F      -1.1529022759     0.2247768549    -0.0000000000
    4      C       0.0163188924    -0.4355678917     0.0000000000
    5      H      -0.1189529826    -1.5078994676    -0.0000000000
    6      H       1.2308255218     1.2785613540    -0.0000000000
    7      H       2.0902345342    -0.3786192262     0.0000000000
 ----------------------------------------------------------------

   20    -176.9367738139      2.69e-09  Convergence criterion met
 CCSD total energy           = -177.44789356
 EOMEE transition 1/A'
 Total energy = -166.85850222 a.u.  Excitation energy = 288.1520 eV.
 EOMEE transition 2/A'
 Total energy = -166.83583877 a.u.  Excitation energy = 288.7687 eV.
 EOMEE transition 3/A'
 Total energy = -166.81438489 a.u.  Excitation energy = 289.3525 eV.
 EOMEE transition 4/A'
 Total energy = -166.80134233 a.u.  Excitation energy = 289.7074 eV.
 EOMEE transition 5/A'
 Total energy = -166.78805523 a.u.  Excitation energy = 290.0690 eV.
 Excited state properties for  CVS-EOMEE-CCSD transition 1/A'
 Excited state properties for  CVS-EOMEE-CCSD transition 2/A'
 Excited state properties for  CVS-EOMEE-CCSD transition 3/A'
 Excited state properties for  CVS-EOMEE-CCSD transition 4/A'
 Excited state properties for  CVS-EOMEE-CCSD transition 5/A'
 EOMEE transition 1/A"
 Total energy = -166.94111493 a.u.  Excitation energy = 285.9040 eV.
 EOMEE transition 2/A"
 Total energy = -166.86280886 a.u.  Excitation energy = 288.0348 eV.
 EOMEE transition 3/A"
 Total energy = -166.81444278 a.u.  Excitation energy = 289.3509 eV.
 EOMEE transition 4/A"
 Total energy = -166.77748197 a.u.  Excitation energy = 290.3567 eV.
 EOMEE transition 5/A"
 Total energy = -166.77450117 a.u.  Excitation energy = 290.4378 eV.
 Excited state properties for  CVS-EOMEE-CCSD transition 1/A"
 Excited state properties for  CVS-EOMEE-CCSD transition 2/A"
 Excited state properties for  CVS-EOMEE-CCSD transition 3/A"
 Excited state properties for  CVS-EOMEE-CCSD transition 4/A"
 Excited state properties for  CVS-EOMEE-CCSD transition 5/A"

             Orbital Energies (a.u.) and Symmetries
 --------------------------------------------------------------

 Alpha MOs, Restricted
 -- Occupied --
-26.310 -11.332 -11.240  -1.628  -1.055  -0.840  -0.740  -0.690
  1 A'    2 A'    3 A'    4 A'    5 A'    6 A'    7 A'    1 A"
 -0.686  -0.591  -0.562  -0.386
  8 A'    9 A'   10 A'    2 A"

 Beta MOs, Restricted
 -- Occupied --
-26.310 -11.332 -11.240  -1.628  -1.055  -0.840  -0.740  -0.690
  1 A'    2 A'    3 A'    4 A'    5 A'    6 A'    7 A'    1 A"
 -0.686  -0.591  -0.562  -0.386
  8 A'    9 A'   10 A'    2 A"

          Ground-State Mulliken Net Atomic Charges

     Atom                 Charge (a.u.)
  ----------------------------------------
      1 C                    -0.227533
      2 GH                    0.007844
      3 F                    -0.151639
      4 C                    -0.030325
      5 H                     0.166304
      6 H                     0.135869
      7 H                     0.099481
  ----------------------------------------
  Sum of atomic charges =     0.000000

                    Cartesian Multipole Moments
 -----------------------------------------------------------------
    Charge (ESU x 10^10)
                -0.0000
    Dipole Moment (Debye)
         X       1.4897      Y      -0.9288      Z       0.0000
       Tot       1.7555
    Quadrupole Moments (Debye-Ang)
        XX     -18.0220     XY       0.9579     YY     -15.3251
        XZ       0.0000     YZ      -0.0000     ZZ     -19.4679

 Total job time:  2260.88s(wall), 1289.16s(cpu)
        *  Thank you very much for using Q-Chem.  Have a nice day.  *
