 Q-Chem 5.1, Q-Chem, Inc., Pleasanton, CA (2018)
 Q-Chem 5.1.0 for Intel X86 EM64T Linux

User input:
--------------------------------------------------------------
$comment
NEXAFS VINYLFLUORIDE / aug-cc-ÃpVTZ+Rydberg
Optimized geometry with CFour
$end

$molecule
0 1
C
Gh   1 nc2
F    2 fn3         1 fnc3
C    3 cf4         2 cfn4          1 dih4
H    4 hc5         1 hcc5          2 dih5
H    1 hc6         4 hcc6          3 dih6
H    1 hc7         4 hcc7          3 dih7

nc2         1.196145
fn3         1.174610
fnc3        159.355
cf4         1.342808
cfn4         18.424
dih4        180.000
hc5         1.080830
hcc5        125.835
dih5        180.000
hc6         1.080059
hcc6        121.377
dih6          0.000
hc7         1.078980
hcc7        118.942
dih7        180.000
$end

$rem
!    input_bohr = true
    jobtype = sp
    method = eom-ccsd
    cvs_ee_singlets    [10,10]
    basis = gen
    n_frozen_core = fc
    cc_trans_prop = true
    EOM_DAVIDSON_MAXVECTORS = 1000
    eom_preconv_singles = true
    eom_davidson_convergence = 4
    eom_shift = 11500
   eom_davidson_convergence = 4   !as we discussed, this is good for core
   use_libqints = 1   !use new int library (will be def in trunk)
   thresh = 14   !this already should be default, but just in case
   scf_convergence = 12
   cc_convergence = 12
   basis_lin_dep_thresh = 8
   cc_memory = 100000
$end

$basis
C    0
S    8    1.000000
   8.23600000E+03    5.31000000E-04
   1.23500000E+03    4.10800000E-03
   2.80800000E+02    2.10870000E-02
   7.92700000E+01    8.18530000E-02
   2.55900000E+01    2.34817000E-01
   8.99700000E+00    4.34401000E-01
   3.31900000E+00    3.46129000E-01
   3.64300000E-01   -8.98300000E-03
S    8    1.000000
   8.23600000E+03   -1.13000000E-04
   1.23500000E+03   -8.78000000E-04
   2.80800000E+02   -4.54000000E-03
   7.92700000E+01   -1.81330000E-02
   2.55900000E+01   -5.57600000E-02
   8.99700000E+00   -1.26895000E-01
   3.31900000E+00   -1.70352000E-01
   3.64300000E-01    5.98684000E-01
S    1    1.000000
   9.05900000E-01    1.00000000E+00
S    1    1.000000
   1.28500000E-01    1.00000000E+00
P    3    1.000000
   1.87100000E+01    1.40310000E-02
   4.13300000E+00    8.68660000E-02
   1.20000000E+00    2.90216000E-01
P    1    1.000000
   3.82700000E-01    1.00000000E+00
P    1    1.000000
   1.20900000E-01    1.00000000E+00
D    1    1.000000
   1.09700000E+00    1.00000000E+00
D    1    1.000000
   3.18000000E-01    1.00000000E+00
F    1    1.000000
   7.61000000E-01    1.00000000E+00
S    1    1.000000
   4.40200000E-02    1.00000000E+00
P    1    1.000000
   3.56900000E-02    1.00000000E+00
D    1    1.000000
   1.00000000E-01    1.00000000E+00
F    1    1.000000
   2.68000000E-01    1.00000000E+00
****
Gh   0
S   1   1.00
        0.0112533427        1.0000000000
S   1   1.00
        0.0058583805        1.0000000000
S   1   1.00
        0.0033459739        1.0000000000
S   1   1.00
        0.0020484225        1.0000000000
S   1   1.00
        0.0013236424        1.0000000000
P   1   1.00
        0.0192542060        1.0000000000
P   1   1.00
        0.0099882106        1.0000000000
P   1   1.00
        0.0056893607        1.0000000000
P   1   1.00
        0.0034756797        1.0000000000
P   1   1.00
        0.0022420590        1.0000000000
D   1   1.00
        0.0274456919        1.0000000000
D   1   1.00
        0.0142043987        1.0000000000
D   1   1.00
        0.0080765930        1.0000000000
D   1   1.00
        0.0049271863        1.0000000000
D   1   1.00
        0.0031748110        1.0000000000
****
F    0
S    8    1.000000
   1.95000000E+04    5.07000000E-04
   2.92300000E+03    3.92300000E-03
   6.64500000E+02    2.02000000E-02
   1.87500000E+02    7.90100000E-02
   6.06200000E+01    2.30439000E-01
   2.14200000E+01    4.32872000E-01
   7.95000000E+00    3.49964000E-01
   8.81500000E-01   -7.89200000E-03
S    8    1.000000
   1.95000000E+04   -1.17000000E-04
   2.92300000E+03   -9.12000000E-04
   6.64500000E+02   -4.71700000E-03
   1.87500000E+02   -1.90860000E-02
   6.06200000E+01   -5.96550000E-02
   2.14200000E+01   -1.40010000E-01
   7.95000000E+00   -1.76782000E-01
   8.81500000E-01    6.05043000E-01
S    1    1.000000
   2.25700000E+00    1.00000000E+00
S    1    1.000000
   3.04100000E-01    1.00000000E+00
P    3    1.000000
   4.38800000E+01    1.66650000E-02
   9.92600000E+00    1.04472000E-01
   2.93000000E+00    3.17260000E-01
P    1    1.000000
   9.13200000E-01    1.00000000E+00
P    1    1.000000
   2.67200000E-01    1.00000000E+00
D    1    1.000000
   3.10700000E+00    1.00000000E+00
D    1    1.000000
   8.55000000E-01    1.00000000E+00
F    1    1.000000
   1.91700000E+00    1.00000000E+00
S    1    1.000000
   9.15800000E-02    1.00000000E+00
P    1    1.000000
   7.36100000E-02    1.00000000E+00
D    1    1.000000
   2.92000000E-01    1.00000000E+00
F    1    1.000000
   7.24000000E-01    1.00000000E+00
****
C    0
S    8    1.000000
   8.23600000E+03    5.31000000E-04
   1.23500000E+03    4.10800000E-03
   2.80800000E+02    2.10870000E-02
   7.92700000E+01    8.18530000E-02
   2.55900000E+01    2.34817000E-01
   8.99700000E+00    4.34401000E-01
   3.31900000E+00    3.46129000E-01
   3.64300000E-01   -8.98300000E-03
S    8    1.000000
   8.23600000E+03   -1.13000000E-04
   1.23500000E+03   -8.78000000E-04
   2.80800000E+02   -4.54000000E-03
   7.92700000E+01   -1.81330000E-02
   2.55900000E+01   -5.57600000E-02
   8.99700000E+00   -1.26895000E-01
   3.31900000E+00   -1.70352000E-01
   3.64300000E-01    5.98684000E-01
S    1    1.000000
   9.05900000E-01    1.00000000E+00
S    1    1.000000
   1.28500000E-01    1.00000000E+00
P    3    1.000000
   1.87100000E+01    1.40310000E-02
   4.13300000E+00    8.68660000E-02
   1.20000000E+00    2.90216000E-01
P    1    1.000000
   3.82700000E-01    1.00000000E+00
P    1    1.000000
   1.20900000E-01    1.00000000E+00
D    1    1.000000
   1.09700000E+00    1.00000000E+00
D    1    1.000000
   3.18000000E-01    1.00000000E+00
F    1    1.000000
   7.61000000E-01    1.00000000E+00
S    1    1.000000
   4.40200000E-02    1.00000000E+00
P    1    1.000000
   3.56900000E-02    1.00000000E+00
D    1    1.000000
   1.00000000E-01    1.00000000E+00
F    1    1.000000
   2.68000000E-01    1.00000000E+00
****
H    0
S    3    1.000000
   3.38700000E+01    6.06800000E-03
   5.09500000E+00    4.53080000E-02
   1.15900000E+00    2.02822000E-01
S    1    1.000000
   3.25800000E-01    1.00000000E+00
S    1    1.000000
   1.02700000E-01    1.00000000E+00
P    1    1.000000
   1.40700000E+00    1.00000000E+00
P    1    1.000000
   3.88000000E-01    1.00000000E+00
D    1    1.000000
   1.05700000E+00    1.00000000E+00
S    1    1.000000
   2.52600000E-02    1.00000000E+00
P    1    1.000000
   1.02000000E-01    1.00000000E+00
D    1    1.000000
   2.47000000E-01    1.00000000E+00
****
H    0
S    3    1.000000
   3.38700000E+01    6.06800000E-03
   5.09500000E+00    4.53080000E-02
   1.15900000E+00    2.02822000E-01
S    1    1.000000
   3.25800000E-01    1.00000000E+00
S    1    1.000000
   1.02700000E-01    1.00000000E+00
P    1    1.000000
   1.40700000E+00    1.00000000E+00
P    1    1.000000
   3.88000000E-01    1.00000000E+00
D    1    1.000000
   1.05700000E+00    1.00000000E+00
S    1    1.000000
   2.52600000E-02    1.00000000E+00
P    1    1.000000
   1.02000000E-01    1.00000000E+00
D    1    1.000000
   2.47000000E-01    1.00000000E+00
****
H    0
S    3    1.000000
   3.38700000E+01    6.06800000E-03
   5.09500000E+00    4.53080000E-02
   1.15900000E+00    2.02822000E-01
S    1    1.000000
   3.25800000E-01    1.00000000E+00
S    1    1.000000
   1.02700000E-01    1.00000000E+00
P    1    1.000000
   1.40700000E+00    1.00000000E+00
P    1    1.000000
   3.88000000E-01    1.00000000E+00
D    1    1.000000
   1.05700000E+00    1.00000000E+00
S    1    1.000000
   2.52600000E-02    1.00000000E+00
P    1    1.000000
   1.02000000E-01    1.00000000E+00
D    1    1.000000
   2.47000000E-01    1.00000000E+00
****
H    0
S    3    1.000000
   3.38700000E+01    6.06800000E-03
   5.09500000E+00    4.53080000E-02
   1.15900000E+00    2.02822000E-01
S    1    1.000000
   3.25800000E-01    1.00000000E+00
S    1    1.000000
   1.02700000E-01    1.00000000E+00

             Standard Nuclear Orientation (Angstroms)
    I     Atom           X                Y                Z
 ----------------------------------------------------------------
    1      C       1.1793501531     0.1997297036     0.0000000000
    2      GH     -0.0000008629    -0.0000052260     0.0000000000
    3      F      -1.1529022759     0.2247768549    -0.0000000000
    4      C       0.0163188924    -0.4355678917     0.0000000000
    5      H      -0.1189529826    -1.5078994676    -0.0000000000
    6      H       1.2308255218     1.2785613540    -0.0000000000
    7      H       2.0902345342    -0.3786192262     0.0000000000
 ----------------------------------------------------------------

   24    -176.9563292714      8.41e-13  Convergence criterion met
 CCSD total energy           = -177.56107725
 EOMEE transition 1/A'
 Total energy = -166.05990353 a.u.  Excitation energy = 312.9629 eV.
 EOMEE transition 2/A'
 Total energy = -166.04232438 a.u.  Excitation energy = 313.4412 eV.
 EOMEE transition 3/A'
 Total energy = -166.08243146 a.u.  Excitation energy = 312.3498 eV.
 EOMEE transition 4/A'
 Total energy = -166.08630242 a.u.  Excitation energy = 312.2445 eV.
 EOMEE transition 5/A'
 Total energy = -166.02621232 a.u.  Excitation energy = 313.8796 eV.
 EOMEE transition 6/A'
 Total energy = -166.01742964 a.u.  Excitation energy = 314.1186 eV.
 EOMEE transition 7/A'
 Total energy = -166.12281627 a.u.  Excitation energy = 311.2509 eV.
 EOMEE transition 8/A'
 Total energy = -165.98556523 a.u.  Excitation energy = 314.9857 eV.
 EOMEE transition 9/A'
 Total energy = -166.14126495 a.u.  Excitation energy = 310.7489 eV.
 EOMEE transition 10/A'
 Total energy = -166.14424441 a.u.  Excitation energy = 310.6678 eV.
 EOMEE transition 1/A"
 Total energy = -166.05693714 a.u.  Excitation energy = 313.0436 eV.
 EOMEE transition 2/A"
 Total energy = -166.06665332 a.u.  Excitation energy = 312.7792 eV.
 EOMEE transition 3/A"
 Total energy = -166.05063732 a.u.  Excitation energy = 313.2150 eV.
 EOMEE transition 4/A"
 Total energy = -166.04440853 a.u.  Excitation energy = 313.3845 eV.
 EOMEE transition 5/A"
 Total energy = -166.07927684 a.u.  Excitation energy = 312.4357 eV.
 EOMEE transition 6/A"
 Total energy = -166.08473041 a.u.  Excitation energy = 312.2873 eV.
 EOMEE transition 7/A"
 Total energy = -166.03190133 a.u.  Excitation energy = 313.7248 eV.
 EOMEE transition 8/A"
 Total energy = -166.10672313 a.u.  Excitation energy = 311.6888 eV.
 EOMEE transition 9/A"
 Total energy = -166.11104977 a.u.  Excitation energy = 311.5711 eV.
 EOMEE transition 10/A"
 Total energy = -166.11358491 a.u.  Excitation energy = 311.5021 eV.

             Orbital Energies (a.u.) and Symmetries
 --------------------------------------------------------------

 Alpha MOs, Restricted
 -- Occupied --
-26.310 -11.329 -11.237  -1.627  -1.052  -0.838  -0.739  -0.691
  1 A'    2 A'    3 A'    4 A'    5 A'    6 A'    7 A'    1 A"
 -0.684  -0.589  -0.560  -0.385
  8 A'    9 A'   10 A'    2 A"

 Beta MOs, Restricted
 -- Occupied --
-26.310 -11.329 -11.237  -1.627  -1.052  -0.838  -0.739  -0.691
  1 A'    2 A'    3 A'    4 A'    5 A'    6 A'    7 A'    1 A"
 -0.684  -0.589  -0.560  -0.385
  8 A'    9 A'   10 A'    2 A"

          Ground-State Mulliken Net Atomic Charges

     Atom                 Charge (a.u.)
  ----------------------------------------
      1 C                    -1.107700
      2 GH                   -0.009086
      3 F                    -0.392721
      4 C                    -0.166657
      5 H                     0.726950
      6 H                     0.486294
      7 H                     0.462919
  ----------------------------------------
  Sum of atomic charges =    -0.000000

                    Cartesian Multipole Moments
 -----------------------------------------------------------------
    Charge (ESU x 10^10)
                 0.0000
    Dipole Moment (Debye)
         X       1.3472      Y      -0.8369      Z       0.0000
       Tot       1.5860
    Quadrupole Moments (Debye-Ang)
        XX     -17.8343     XY       0.9536     YY     -15.3422
        XZ      -0.0000     YZ      -0.0000     ZZ     -19.3731

 Total job time:  46680.48s(wall), 320803.33s(cpu)
        *  Thank you very much for using Q-Chem.  Have a nice day.  *
